
     Program PWSCF v.6.7MaX starts on 29Apr2021 at 15:49: 9 

     This program is part of the open-source Quantum ESPRESSO suite
     for quantum simulation of materials; please cite
         "P. Giannozzi et al., J. Phys.:Condens. Matter 21 395502 (2009);
         "P. Giannozzi et al., J. Phys.:Condens. Matter 29 465901 (2017);
          URL http://www.quantum-espresso.org", 
     in publications or presentations arising from this work. More details at
     http://www.quantum-espresso.org/quote

     Parallel version (MPI), running on    28 processors

     MPI processes distributed on     1 nodes
     R & G space division:  proc/nbgrp/npool/nimage =      28
     Waiting for input...
     Reading input from standard input

     Current dimensions of program PWSCF are:
     Max number of different atomic species (ntypx) = 10
     Max number of k-points (npk) =  40000
     Max angular momentum in pseudopotentials (lmaxx) =  3

     Atomic positions and unit cell read from directory:
     run_output/GaAs.save/
     Atomic positions from file used, from input discarded


     Subspace diagonalization in iterative solution of the eigenvalue problem:
     a serial algorithm will be used

     Message from routine setup:
     using ibrav=0 with symmetry is DISCOURAGED, use correct ibrav instead

     Parallelization info
     --------------------
     sticks:   dense  smooth     PW     G-vecs:    dense   smooth      PW
     Min          38      38     11                  838      838     136
     Max          39      39     12                  843      843     141
     Sum        1069    1069    313                23505    23505    3839



     bravais-lattice index     =            0
     lattice parameter (alat)  =       7.4893  a.u.
     unit-cell volume          =     297.0321 (a.u.)^3
     number of atoms/cell      =            2
     number of atomic types    =            2
     number of electrons       =         8.00
     number of Kohn-Sham states=           70
     kinetic-energy cutoff     =      70.0000  Ry
     charge density cutoff     =     280.0000  Ry
     Exchange-correlation=  SLA  PZ   NOGX NOGC
                           (   1   1   0   0   0   0   0)

     celldm(1)=   7.489269  celldm(2)=   0.000000  celldm(3)=   0.000000
     celldm(4)=   0.000000  celldm(5)=   0.000000  celldm(6)=   0.000000

     crystal axes: (cart. coord. in units of alat)
               a(1) = (   0.000000   0.707107   0.707107 )  
               a(2) = (   0.707107   0.000000   0.707107 )  
               a(3) = (   0.707107   0.707107   0.000000 )  

     reciprocal axes: (cart. coord. in units 2 pi/alat)
               b(1) = ( -0.707107  0.707107  0.707107 )  
               b(2) = (  0.707107 -0.707107  0.707107 )  
               b(3) = (  0.707107  0.707107 -0.707107 )  


     PseudoPot. # 1 for As read from file:
     PPs/As.pz-bhs.UPF
     MD5 check sum: 451cd3365afcfc94d28b1934951c34a8
     Pseudo is Norm-conserving, Zval =  5.0
     Generated by new atomic code, or converted to UPF format
     Using radial grid of  525 points,  2 beta functions with: 
                l(1) =   0
                l(2) =   1

     PseudoPot. # 2 for Ga read from file:
     PPs/Ga_hamlu.fhi.UPF
     MD5 check sum: 4ad1663a8a964d7f0e56f5e6e9567420
     Pseudo is Norm-conserving + core correction, Zval =  3.0
     Generated by new atomic code, or converted to UPF format
     Using radial grid of  529 points,  2 beta functions with: 
                l(1) =   1
                l(2) =   2

     atomic species   valence    mass     pseudopotential
        As             5.00    74.92160     As( 1.00)
        Ga             3.00    69.72300     Ga( 1.00)

     24 Sym. Ops. (no inversion) found


                                    s                        frac. trans.

      isym =  1     identity                                     

 cryst.   s( 1) = (     1          0          0      )
                  (     0          1          0      )
                  (     0          0          1      )

 cart.    s( 1) = (  1.0000000  0.0000000  0.0000000 )
                  (  0.0000000  1.0000000  0.0000000 )
                  (  0.0000000  0.0000000  1.0000000 )


      isym =  2     180 deg rotation - cart. axis [0,0,1]        

 cryst.   s( 2) = (     0          1         -1      )
                  (     1          0         -1      )
                  (     0          0         -1      )

 cart.    s( 2) = ( -1.0000000  0.0000000  0.0000000 )
                  (  0.0000000 -1.0000000  0.0000000 )
                  (  0.0000000  0.0000000  1.0000000 )


      isym =  3     180 deg rotation - cart. axis [0,1,0]        

 cryst.   s( 3) = (     0         -1          1      )
                  (     0         -1          0      )
                  (     1         -1          0      )

 cart.    s( 3) = ( -1.0000000  0.0000000  0.0000000 )
                  (  0.0000000  1.0000000  0.0000000 )
                  (  0.0000000  0.0000000 -1.0000000 )


      isym =  4     180 deg rotation - cart. axis [1,0,0]        

 cryst.   s( 4) = (    -1          0          0      )
                  (    -1          0          1      )
                  (    -1          1          0      )

 cart.    s( 4) = (  1.0000000  0.0000000  0.0000000 )
                  (  0.0000000 -1.0000000  0.0000000 )
                  (  0.0000000  0.0000000 -1.0000000 )


      isym =  5     120 deg rotation - cart. axis [-1,-1,-1]     

 cryst.   s( 5) = (     0          0          1      )
                  (     1          0          0      )
                  (     0          1          0      )

 cart.    s( 5) = (  0.0000000  1.0000000  0.0000000 )
                  (  0.0000000  0.0000000  1.0000000 )
                  (  1.0000000  0.0000000  0.0000000 )


      isym =  6     120 deg rotation - cart. axis [-1,1,1]       

 cryst.   s( 6) = (     1         -1          0      )
                  (     0         -1          1      )
                  (     0         -1          0      )

 cart.    s( 6) = (  0.0000000 -1.0000000  0.0000000 )
                  (  0.0000000  0.0000000  1.0000000 )
                  ( -1.0000000  0.0000000  0.0000000 )


      isym =  7     120 deg rotation - cart. axis [1,1,-1]       

 cryst.   s( 7) = (    -1          1          0      )
                  (    -1          0          0      )
                  (    -1          0          1      )

 cart.    s( 7) = (  0.0000000  1.0000000  0.0000000 )
                  (  0.0000000  0.0000000 -1.0000000 )
                  ( -1.0000000  0.0000000  0.0000000 )


      isym =  8     120 deg rotation - cart. axis [1,-1,1]       

 cryst.   s( 8) = (     0          0         -1      )
                  (     0          1         -1      )
                  (     1          0         -1      )

 cart.    s( 8) = (  0.0000000 -1.0000000  0.0000000 )
                  (  0.0000000  0.0000000 -1.0000000 )
                  (  1.0000000  0.0000000  0.0000000 )


      isym =  9     120 deg rotation - cart. axis [1,1,1]        

 cryst.   s( 9) = (     0          1          0      )
                  (     0          0          1      )
                  (     1          0          0      )

 cart.    s( 9) = (  0.0000000  0.0000000  1.0000000 )
                  (  1.0000000  0.0000000  0.0000000 )
                  (  0.0000000  1.0000000  0.0000000 )


      isym = 10     120 deg rotation - cart. axis [-1,1,-1]      

 cryst.   s(10) = (    -1          0          1      )
                  (    -1          1          0      )
                  (    -1          0          0      )

 cart.    s(10) = (  0.0000000  0.0000000  1.0000000 )
                  ( -1.0000000  0.0000000  0.0000000 )
                  (  0.0000000 -1.0000000  0.0000000 )


      isym = 11     120 deg rotation - cart. axis [1,-1,-1]      

 cryst.   s(11) = (     1          0         -1      )
                  (     0          0         -1      )
                  (     0          1         -1      )

 cart.    s(11) = (  0.0000000  0.0000000 -1.0000000 )
                  ( -1.0000000  0.0000000  0.0000000 )
                  (  0.0000000  1.0000000  0.0000000 )


      isym = 12     120 deg rotation - cart. axis [-1,-1,1]      

 cryst.   s(12) = (     0         -1          0      )
                  (     1         -1          0      )
                  (     0         -1          1      )

 cart.    s(12) = (  0.0000000  0.0000000 -1.0000000 )
                  (  1.0000000  0.0000000  0.0000000 )
                  (  0.0000000 -1.0000000  0.0000000 )


      isym = 13     inv. 180 deg rotation - cart. axis [1,1,0]   

 cryst.   s(13) = (     1          0         -1      )
                  (     0          1         -1      )
                  (     0          0         -1      )

 cart.    s(13) = (  0.0000000 -1.0000000  0.0000000 )
                  ( -1.0000000  0.0000000  0.0000000 )
                  (  0.0000000  0.0000000  1.0000000 )


      isym = 14     inv. 180 deg rotation - cart. axis [1,-1,0]  

 cryst.   s(14) = (     0          1          0      )
                  (     1          0          0      )
                  (     0          0          1      )

 cart.    s(14) = (  0.0000000  1.0000000  0.0000000 )
                  (  1.0000000  0.0000000  0.0000000 )
                  (  0.0000000  0.0000000  1.0000000 )


      isym = 15     inv.  90 deg rotation - cart. axis [0,0,-1]  

 cryst.   s(15) = (     0         -1          0      )
                  (     0         -1          1      )
                  (     1         -1          0      )

 cart.    s(15) = (  0.0000000 -1.0000000  0.0000000 )
                  (  1.0000000  0.0000000  0.0000000 )
                  (  0.0000000  0.0000000 -1.0000000 )


      isym = 16     inv.  90 deg rotation - cart. axis [0,0,1]   

 cryst.   s(16) = (    -1          0          1      )
                  (    -1          0          0      )
                  (    -1          1          0      )

 cart.    s(16) = (  0.0000000  1.0000000  0.0000000 )
                  ( -1.0000000  0.0000000  0.0000000 )
                  (  0.0000000  0.0000000 -1.0000000 )


      isym = 17     inv. 180 deg rotation - cart. axis [1,0,1]   

 cryst.   s(17) = (     1         -1          0      )
                  (     0         -1          0      )
                  (     0         -1          1      )

 cart.    s(17) = (  0.0000000  0.0000000 -1.0000000 )
                  (  0.0000000  1.0000000  0.0000000 )
                  ( -1.0000000  0.0000000  0.0000000 )


      isym = 18     inv. 180 deg rotation - cart. axis [-1,0,1]  

 cryst.   s(18) = (     0          0          1      )
                  (     0          1          0      )
                  (     1          0          0      )

 cart.    s(18) = (  0.0000000  0.0000000  1.0000000 )
                  (  0.0000000  1.0000000  0.0000000 )
                  (  1.0000000  0.0000000  0.0000000 )


      isym = 19     inv.  90 deg rotation - cart. axis [0,1,0]   

 cryst.   s(19) = (     0          0         -1      )
                  (     1          0         -1      )
                  (     0          1         -1      )

 cart.    s(19) = (  0.0000000  0.0000000 -1.0000000 )
                  (  0.0000000 -1.0000000  0.0000000 )
                  (  1.0000000  0.0000000  0.0000000 )


      isym = 20     inv.  90 deg rotation - cart. axis [0,-1,0]  

 cryst.   s(20) = (    -1          1          0      )
                  (    -1          0          1      )
                  (    -1          0          0      )

 cart.    s(20) = (  0.0000000  0.0000000  1.0000000 )
                  (  0.0000000 -1.0000000  0.0000000 )
                  ( -1.0000000  0.0000000  0.0000000 )


      isym = 21     inv. 180 deg rotation - cart. axis [0,1,1]   

 cryst.   s(21) = (    -1          0          0      )
                  (    -1          1          0      )
                  (    -1          0          1      )

 cart.    s(21) = (  1.0000000  0.0000000  0.0000000 )
                  (  0.0000000  0.0000000 -1.0000000 )
                  (  0.0000000 -1.0000000  0.0000000 )


      isym = 22     inv. 180 deg rotation - cart. axis [0,1,-1]  

 cryst.   s(22) = (     1          0          0      )
                  (     0          0          1      )
                  (     0          1          0      )

 cart.    s(22) = (  1.0000000  0.0000000  0.0000000 )
                  (  0.0000000  0.0000000  1.0000000 )
                  (  0.0000000  1.0000000  0.0000000 )


      isym = 23     inv.  90 deg rotation - cart. axis [-1,0,0]  

 cryst.   s(23) = (     0          1         -1      )
                  (     0          0         -1      )
                  (     1          0         -1      )

 cart.    s(23) = ( -1.0000000  0.0000000  0.0000000 )
                  (  0.0000000  0.0000000 -1.0000000 )
                  (  0.0000000  1.0000000  0.0000000 )


      isym = 24     inv.  90 deg rotation - cart. axis [1,0,0]   

 cryst.   s(24) = (     0         -1          1      )
                  (     1         -1          0      )
                  (     0         -1          0      )

 cart.    s(24) = ( -1.0000000  0.0000000  0.0000000 )
                  (  0.0000000  0.0000000  1.0000000 )
                  (  0.0000000 -1.0000000  0.0000000 )


   Cartesian axes

     site n.     atom                  positions (alat units)
         1           Ga  tau(   1) = (   0.0000000   0.0000000   0.0000000  )
         2           As  tau(   2) = (   0.3535534   1.0606602   1.0606602  )

   Crystallographic axes

     site n.     atom                  positions (cryst. coord.)
         1           Ga  tau(   1) = (  0.0000000  0.0000000  0.0000000  )
         2           As  tau(   2) = (  1.2500000  0.2500000  0.2500000  )

     number of k points=  1661
                       cart. coord. in units 2pi/alat
        k(    1) = (   0.0000000   0.0000000   0.0000000), wk =   0.0000312
        k(    2) = (   0.0176777   0.0176777  -0.0176777), wk =   0.0002500
        k(    3) = (   0.0353553   0.0353553  -0.0353553), wk =   0.0002500
        k(    4) = (   0.0530330   0.0530330  -0.0530330), wk =   0.0002500
        k(    5) = (   0.0707107   0.0707107  -0.0707107), wk =   0.0002500
        k(    6) = (   0.0883883   0.0883883  -0.0883883), wk =   0.0002500
        k(    7) = (   0.1060660   0.1060660  -0.1060660), wk =   0.0002500
        k(    8) = (   0.1237437   0.1237437  -0.1237437), wk =   0.0002500
        k(    9) = (   0.1414214   0.1414214  -0.1414214), wk =   0.0002500
        k(   10) = (   0.1590990   0.1590990  -0.1590990), wk =   0.0002500
        k(   11) = (   0.1767767   0.1767767  -0.1767767), wk =   0.0002500
        k(   12) = (   0.1944544   0.1944544  -0.1944544), wk =   0.0002500
        k(   13) = (   0.2121320   0.2121320  -0.2121320), wk =   0.0002500
        k(   14) = (   0.2298097   0.2298097  -0.2298097), wk =   0.0002500
        k(   15) = (   0.2474874   0.2474874  -0.2474874), wk =   0.0002500
        k(   16) = (   0.2651650   0.2651650  -0.2651650), wk =   0.0002500
        k(   17) = (   0.2828427   0.2828427  -0.2828427), wk =   0.0002500
        k(   18) = (   0.3005204   0.3005204  -0.3005204), wk =   0.0002500
        k(   19) = (   0.3181981   0.3181981  -0.3181981), wk =   0.0002500
        k(   20) = (   0.3358757   0.3358757  -0.3358757), wk =   0.0002500
        k(   21) = (  -0.3535534  -0.3535534   0.3535534), wk =   0.0001250
        k(   22) = (   0.0353553   0.0000000   0.0000000), wk =   0.0001875
        k(   23) = (   0.0530330   0.0176777  -0.0176777), wk =   0.0007500
        k(   24) = (   0.0707107   0.0353553  -0.0353553), wk =   0.0007500
        k(   25) = (   0.0883883   0.0530330  -0.0530330), wk =   0.0007500
        k(   26) = (   0.1060660   0.0707107  -0.0707107), wk =   0.0007500
        k(   27) = (   0.1237437   0.0883883  -0.0883883), wk =   0.0007500
        k(   28) = (   0.1414214   0.1060660  -0.1060660), wk =   0.0007500
        k(   29) = (   0.1590990   0.1237437  -0.1237437), wk =   0.0007500
        k(   30) = (   0.1767767   0.1414214  -0.1414214), wk =   0.0007500
        k(   31) = (   0.1944544   0.1590990  -0.1590990), wk =   0.0007500
        k(   32) = (   0.2121320   0.1767767  -0.1767767), wk =   0.0007500
        k(   33) = (   0.2298097   0.1944544  -0.1944544), wk =   0.0007500
        k(   34) = (   0.2474874   0.2121320  -0.2121320), wk =   0.0007500
        k(   35) = (   0.2651650   0.2298097  -0.2298097), wk =   0.0007500
        k(   36) = (   0.2828427   0.2474874  -0.2474874), wk =   0.0007500
        k(   37) = (   0.3005204   0.2651650  -0.2651650), wk =   0.0007500
        k(   38) = (   0.3181981   0.2828427  -0.2828427), wk =   0.0007500
        k(   39) = (   0.3358757   0.3005204  -0.3005204), wk =   0.0007500
        k(   40) = (   0.3535534   0.3181981  -0.3181981), wk =   0.0007500
        k(   41) = (  -0.3358757  -0.3712311   0.3712311), wk =   0.0007500
        k(   42) = (  -0.3181981  -0.3535534   0.3535534), wk =   0.0007500
        k(   43) = (  -0.3005204  -0.3358757   0.3358757), wk =   0.0007500
        k(   44) = (  -0.2828427  -0.3181981   0.3181981), wk =   0.0007500
        k(   45) = (  -0.2651650  -0.3005204   0.3005204), wk =   0.0007500
        k(   46) = (  -0.2474874  -0.2828427   0.2828427), wk =   0.0007500
        k(   47) = (  -0.2298097  -0.2651650   0.2651650), wk =   0.0007500
        k(   48) = (  -0.2121320  -0.2474874   0.2474874), wk =   0.0007500
        k(   49) = (  -0.1944544  -0.2298097   0.2298097), wk =   0.0007500
        k(   50) = (  -0.1767767  -0.2121320   0.2121320), wk =   0.0007500
        k(   51) = (  -0.1590990  -0.1944544   0.1944544), wk =   0.0007500
        k(   52) = (  -0.1414214  -0.1767767   0.1767767), wk =   0.0007500
        k(   53) = (  -0.1237437  -0.1590990   0.1590990), wk =   0.0007500
        k(   54) = (  -0.1060660  -0.1414214   0.1414214), wk =   0.0007500
        k(   55) = (  -0.0883883  -0.1237437   0.1237437), wk =   0.0007500
        k(   56) = (  -0.0707107  -0.1060660   0.1060660), wk =   0.0007500
        k(   57) = (  -0.0530330  -0.0883883   0.0883883), wk =   0.0007500
        k(   58) = (  -0.0353553  -0.0707107   0.0707107), wk =   0.0007500
        k(   59) = (  -0.0176777  -0.0530330   0.0530330), wk =   0.0007500
        k(   60) = (  -0.0000000  -0.0353553   0.0353553), wk =   0.0003750
        k(   61) = (   0.0707107   0.0000000   0.0000000), wk =   0.0001875
        k(   62) = (   0.0883883   0.0176777  -0.0176777), wk =   0.0007500
        k(   63) = (   0.1060660   0.0353553  -0.0353553), wk =   0.0007500
        k(   64) = (   0.1237437   0.0530330  -0.0530330), wk =   0.0007500
        k(   65) = (   0.1414214   0.0707107  -0.0707107), wk =   0.0007500
        k(   66) = (   0.1590990   0.0883883  -0.0883883), wk =   0.0007500
        k(   67) = (   0.1767767   0.1060660  -0.1060660), wk =   0.0007500
        k(   68) = (   0.1944544   0.1237437  -0.1237437), wk =   0.0007500
        k(   69) = (   0.2121320   0.1414214  -0.1414214), wk =   0.0007500
        k(   70) = (   0.2298097   0.1590990  -0.1590990), wk =   0.0007500
        k(   71) = (   0.2474874   0.1767767  -0.1767767), wk =   0.0007500
        k(   72) = (   0.2651650   0.1944544  -0.1944544), wk =   0.0007500
        k(   73) = (   0.2828427   0.2121320  -0.2121320), wk =   0.0007500
        k(   74) = (   0.3005204   0.2298097  -0.2298097), wk =   0.0007500
        k(   75) = (   0.3181981   0.2474874  -0.2474874), wk =   0.0007500
        k(   76) = (   0.3358757   0.2651650  -0.2651650), wk =   0.0007500
        k(   77) = (   0.3535534   0.2828427  -0.2828427), wk =   0.0007500
        k(   78) = (   0.3712311   0.3005204  -0.3005204), wk =   0.0007500
        k(   79) = (  -0.3181981  -0.3889087   0.3889087), wk =   0.0007500
        k(   80) = (  -0.3005204  -0.3712311   0.3712311), wk =   0.0007500
        k(   81) = (  -0.2828427  -0.3535534   0.3535534), wk =   0.0007500
        k(   82) = (  -0.2651650  -0.3358757   0.3358757), wk =   0.0007500
        k(   83) = (  -0.2474874  -0.3181981   0.3181981), wk =   0.0007500
        k(   84) = (  -0.2298097  -0.3005204   0.3005204), wk =   0.0007500
        k(   85) = (  -0.2121320  -0.2828427   0.2828427), wk =   0.0007500
        k(   86) = (  -0.1944544  -0.2651650   0.2651650), wk =   0.0007500
        k(   87) = (  -0.1767767  -0.2474874   0.2474874), wk =   0.0007500
        k(   88) = (  -0.1590990  -0.2298097   0.2298097), wk =   0.0007500
        k(   89) = (  -0.1414214  -0.2121320   0.2121320), wk =   0.0007500
        k(   90) = (  -0.1237437  -0.1944544   0.1944544), wk =   0.0007500
        k(   91) = (  -0.1060660  -0.1767767   0.1767767), wk =   0.0007500
        k(   92) = (  -0.0883883  -0.1590990   0.1590990), wk =   0.0007500
        k(   93) = (  -0.0707107  -0.1414214   0.1414214), wk =   0.0007500
        k(   94) = (  -0.0530330  -0.1237437   0.1237437), wk =   0.0007500
        k(   95) = (  -0.0353553  -0.1060660   0.1060660), wk =   0.0007500
        k(   96) = (  -0.0176777  -0.0883883   0.0883883), wk =   0.0007500
        k(   97) = (  -0.0000000  -0.0707107   0.0707107), wk =   0.0003750
        k(   98) = (   0.1060660   0.0000000   0.0000000), wk =   0.0001875
        k(   99) = (   0.1237437   0.0176777  -0.0176777), wk =   0.0007500
        k(  100) = (   0.1414214   0.0353553  -0.0353553), wk =   0.0007500
        k(  101) = (   0.1590990   0.0530330  -0.0530330), wk =   0.0007500
        k(  102) = (   0.1767767   0.0707107  -0.0707107), wk =   0.0007500
        k(  103) = (   0.1944544   0.0883883  -0.0883883), wk =   0.0007500
        k(  104) = (   0.2121320   0.1060660  -0.1060660), wk =   0.0007500
        k(  105) = (   0.2298097   0.1237437  -0.1237437), wk =   0.0007500
        k(  106) = (   0.2474874   0.1414214  -0.1414214), wk =   0.0007500
        k(  107) = (   0.2651650   0.1590990  -0.1590990), wk =   0.0007500
        k(  108) = (   0.2828427   0.1767767  -0.1767767), wk =   0.0007500
        k(  109) = (   0.3005204   0.1944544  -0.1944544), wk =   0.0007500
        k(  110) = (   0.3181981   0.2121320  -0.2121320), wk =   0.0007500
        k(  111) = (   0.3358757   0.2298097  -0.2298097), wk =   0.0007500
        k(  112) = (   0.3535534   0.2474874  -0.2474874), wk =   0.0007500
        k(  113) = (   0.3712311   0.2651650  -0.2651650), wk =   0.0007500
        k(  114) = (   0.3889087   0.2828427  -0.2828427), wk =   0.0007500
        k(  115) = (  -0.3005204  -0.4065864   0.4065864), wk =   0.0007500
        k(  116) = (  -0.2828427  -0.3889087   0.3889087), wk =   0.0007500
        k(  117) = (  -0.2651650  -0.3712311   0.3712311), wk =   0.0007500
        k(  118) = (  -0.2474874  -0.3535534   0.3535534), wk =   0.0007500
        k(  119) = (  -0.2298097  -0.3358757   0.3358757), wk =   0.0007500
        k(  120) = (  -0.2121320  -0.3181981   0.3181981), wk =   0.0007500
        k(  121) = (  -0.1944544  -0.3005204   0.3005204), wk =   0.0007500
        k(  122) = (  -0.1767767  -0.2828427   0.2828427), wk =   0.0007500
        k(  123) = (  -0.1590990  -0.2651650   0.2651650), wk =   0.0007500
        k(  124) = (  -0.1414214  -0.2474874   0.2474874), wk =   0.0007500
        k(  125) = (  -0.1237437  -0.2298097   0.2298097), wk =   0.0007500
        k(  126) = (  -0.1060660  -0.2121320   0.2121320), wk =   0.0007500
        k(  127) = (  -0.0883883  -0.1944544   0.1944544), wk =   0.0007500
        k(  128) = (  -0.0707107  -0.1767767   0.1767767), wk =   0.0007500
        k(  129) = (  -0.0530330  -0.1590990   0.1590990), wk =   0.0007500
        k(  130) = (  -0.0353553  -0.1414214   0.1414214), wk =   0.0007500
        k(  131) = (  -0.0176777  -0.1237437   0.1237437), wk =   0.0007500
        k(  132) = (   0.0000000  -0.1060660   0.1060660), wk =   0.0003750
        k(  133) = (   0.1414214   0.0000000   0.0000000), wk =   0.0001875
        k(  134) = (   0.1590990   0.0176777  -0.0176777), wk =   0.0007500
        k(  135) = (   0.1767767   0.0353553  -0.0353553), wk =   0.0007500
        k(  136) = (   0.1944544   0.0530330  -0.0530330), wk =   0.0007500
        k(  137) = (   0.2121320   0.0707107  -0.0707107), wk =   0.0007500
        k(  138) = (   0.2298097   0.0883883  -0.0883883), wk =   0.0007500
        k(  139) = (   0.2474874   0.1060660  -0.1060660), wk =   0.0007500
        k(  140) = (   0.2651650   0.1237437  -0.1237437), wk =   0.0007500
        k(  141) = (   0.2828427   0.1414214  -0.1414214), wk =   0.0007500
        k(  142) = (   0.3005204   0.1590990  -0.1590990), wk =   0.0007500
        k(  143) = (   0.3181981   0.1767767  -0.1767767), wk =   0.0007500
        k(  144) = (   0.3358757   0.1944544  -0.1944544), wk =   0.0007500
        k(  145) = (   0.3535534   0.2121320  -0.2121320), wk =   0.0007500
        k(  146) = (   0.3712311   0.2298097  -0.2298097), wk =   0.0007500
        k(  147) = (   0.3889087   0.2474874  -0.2474874), wk =   0.0007500
        k(  148) = (   0.4065864   0.2651650  -0.2651650), wk =   0.0007500
        k(  149) = (  -0.2828427  -0.4242641   0.4242641), wk =   0.0007500
        k(  150) = (  -0.2651650  -0.4065864   0.4065864), wk =   0.0007500
        k(  151) = (  -0.2474874  -0.3889087   0.3889087), wk =   0.0007500
        k(  152) = (  -0.2298097  -0.3712311   0.3712311), wk =   0.0007500
        k(  153) = (  -0.2121320  -0.3535534   0.3535534), wk =   0.0007500
        k(  154) = (  -0.1944544  -0.3358757   0.3358757), wk =   0.0007500
        k(  155) = (  -0.1767767  -0.3181981   0.3181981), wk =   0.0007500
        k(  156) = (  -0.1590990  -0.3005204   0.3005204), wk =   0.0007500
        k(  157) = (  -0.1414214  -0.2828427   0.2828427), wk =   0.0007500
        k(  158) = (  -0.1237437  -0.2651650   0.2651650), wk =   0.0007500
        k(  159) = (  -0.1060660  -0.2474874   0.2474874), wk =   0.0007500
        k(  160) = (  -0.0883883  -0.2298097   0.2298097), wk =   0.0007500
        k(  161) = (  -0.0707107  -0.2121320   0.2121320), wk =   0.0007500
        k(  162) = (  -0.0530330  -0.1944544   0.1944544), wk =   0.0007500
        k(  163) = (  -0.0353553  -0.1767767   0.1767767), wk =   0.0007500
        k(  164) = (  -0.0176777  -0.1590990   0.1590990), wk =   0.0007500
        k(  165) = (   0.0000000  -0.1414214   0.1414214), wk =   0.0003750
        k(  166) = (   0.1767767   0.0000000   0.0000000), wk =   0.0001875
        k(  167) = (   0.1944544   0.0176777  -0.0176777), wk =   0.0007500
        k(  168) = (   0.2121320   0.0353553  -0.0353553), wk =   0.0007500
        k(  169) = (   0.2298097   0.0530330  -0.0530330), wk =   0.0007500
        k(  170) = (   0.2474874   0.0707107  -0.0707107), wk =   0.0007500
        k(  171) = (   0.2651650   0.0883883  -0.0883883), wk =   0.0007500
        k(  172) = (   0.2828427   0.1060660  -0.1060660), wk =   0.0007500
        k(  173) = (   0.3005204   0.1237437  -0.1237437), wk =   0.0007500
        k(  174) = (   0.3181981   0.1414214  -0.1414214), wk =   0.0007500
        k(  175) = (   0.3358757   0.1590990  -0.1590990), wk =   0.0007500
        k(  176) = (   0.3535534   0.1767767  -0.1767767), wk =   0.0007500
        k(  177) = (   0.3712311   0.1944544  -0.1944544), wk =   0.0007500
        k(  178) = (   0.3889087   0.2121320  -0.2121320), wk =   0.0007500
        k(  179) = (   0.4065864   0.2298097  -0.2298097), wk =   0.0007500
        k(  180) = (   0.4242641   0.2474874  -0.2474874), wk =   0.0007500
        k(  181) = (  -0.2651650  -0.4419417   0.4419417), wk =   0.0007500
        k(  182) = (  -0.2474874  -0.4242641   0.4242641), wk =   0.0007500
        k(  183) = (  -0.2298097  -0.4065864   0.4065864), wk =   0.0007500
        k(  184) = (  -0.2121320  -0.3889087   0.3889087), wk =   0.0007500
        k(  185) = (  -0.1944544  -0.3712311   0.3712311), wk =   0.0007500
        k(  186) = (  -0.1767767  -0.3535534   0.3535534), wk =   0.0007500
        k(  187) = (  -0.1590990  -0.3358757   0.3358757), wk =   0.0007500
        k(  188) = (  -0.1414214  -0.3181981   0.3181981), wk =   0.0007500
        k(  189) = (  -0.1237437  -0.3005204   0.3005204), wk =   0.0007500
        k(  190) = (  -0.1060660  -0.2828427   0.2828427), wk =   0.0007500
        k(  191) = (  -0.0883883  -0.2651650   0.2651650), wk =   0.0007500
        k(  192) = (  -0.0707107  -0.2474874   0.2474874), wk =   0.0007500
        k(  193) = (  -0.0530330  -0.2298097   0.2298097), wk =   0.0007500
        k(  194) = (  -0.0353553  -0.2121320   0.2121320), wk =   0.0007500
        k(  195) = (  -0.0176777  -0.1944544   0.1944544), wk =   0.0007500
        k(  196) = (   0.0000000  -0.1767767   0.1767767), wk =   0.0003750
        k(  197) = (   0.2121320   0.0000000   0.0000000), wk =   0.0001875
        k(  198) = (   0.2298097   0.0176777  -0.0176777), wk =   0.0007500
        k(  199) = (   0.2474874   0.0353553  -0.0353553), wk =   0.0007500
        k(  200) = (   0.2651650   0.0530330  -0.0530330), wk =   0.0007500
        k(  201) = (   0.2828427   0.0707107  -0.0707107), wk =   0.0007500
        k(  202) = (   0.3005204   0.0883883  -0.0883883), wk =   0.0007500
        k(  203) = (   0.3181981   0.1060660  -0.1060660), wk =   0.0007500
        k(  204) = (   0.3358757   0.1237437  -0.1237437), wk =   0.0007500
        k(  205) = (   0.3535534   0.1414214  -0.1414214), wk =   0.0007500
        k(  206) = (   0.3712311   0.1590990  -0.1590990), wk =   0.0007500
        k(  207) = (   0.3889087   0.1767767  -0.1767767), wk =   0.0007500
        k(  208) = (   0.4065864   0.1944544  -0.1944544), wk =   0.0007500
        k(  209) = (   0.4242641   0.2121320  -0.2121320), wk =   0.0007500
        k(  210) = (   0.4419417   0.2298097  -0.2298097), wk =   0.0007500
        k(  211) = (  -0.2474874  -0.4596194   0.4596194), wk =   0.0007500
        k(  212) = (  -0.2298097  -0.4419417   0.4419417), wk =   0.0007500
        k(  213) = (  -0.2121320  -0.4242641   0.4242641), wk =   0.0007500
        k(  214) = (  -0.1944544  -0.4065864   0.4065864), wk =   0.0007500
        k(  215) = (  -0.1767767  -0.3889087   0.3889087), wk =   0.0007500
        k(  216) = (  -0.1590990  -0.3712311   0.3712311), wk =   0.0007500
        k(  217) = (  -0.1414214  -0.3535534   0.3535534), wk =   0.0007500
        k(  218) = (  -0.1237437  -0.3358757   0.3358757), wk =   0.0007500
        k(  219) = (  -0.1060660  -0.3181981   0.3181981), wk =   0.0007500
        k(  220) = (  -0.0883883  -0.3005204   0.3005204), wk =   0.0007500
        k(  221) = (  -0.0707107  -0.2828427   0.2828427), wk =   0.0007500
        k(  222) = (  -0.0530330  -0.2651650   0.2651650), wk =   0.0007500
        k(  223) = (  -0.0353553  -0.2474874   0.2474874), wk =   0.0007500
        k(  224) = (  -0.0176777  -0.2298097   0.2298097), wk =   0.0007500
        k(  225) = (  -0.0000000  -0.2121320   0.2121320), wk =   0.0003750
        k(  226) = (   0.2474874   0.0000000   0.0000000), wk =   0.0001875
        k(  227) = (   0.2651650   0.0176777  -0.0176777), wk =   0.0007500
        k(  228) = (   0.2828427   0.0353553  -0.0353553), wk =   0.0007500
        k(  229) = (   0.3005204   0.0530330  -0.0530330), wk =   0.0007500
        k(  230) = (   0.3181981   0.0707107  -0.0707107), wk =   0.0007500
        k(  231) = (   0.3358757   0.0883883  -0.0883883), wk =   0.0007500
        k(  232) = (   0.3535534   0.1060660  -0.1060660), wk =   0.0007500
        k(  233) = (   0.3712311   0.1237437  -0.1237437), wk =   0.0007500
        k(  234) = (   0.3889087   0.1414214  -0.1414214), wk =   0.0007500
        k(  235) = (   0.4065864   0.1590990  -0.1590990), wk =   0.0007500
        k(  236) = (   0.4242641   0.1767767  -0.1767767), wk =   0.0007500
        k(  237) = (   0.4419417   0.1944544  -0.1944544), wk =   0.0007500
        k(  238) = (   0.4596194   0.2121320  -0.2121320), wk =   0.0007500
        k(  239) = (  -0.2298097  -0.4772971   0.4772971), wk =   0.0007500
        k(  240) = (  -0.2121320  -0.4596194   0.4596194), wk =   0.0007500
        k(  241) = (  -0.1944544  -0.4419417   0.4419417), wk =   0.0007500
        k(  242) = (  -0.1767767  -0.4242641   0.4242641), wk =   0.0007500
        k(  243) = (  -0.1590990  -0.4065864   0.4065864), wk =   0.0007500
        k(  244) = (  -0.1414214  -0.3889087   0.3889087), wk =   0.0007500
        k(  245) = (  -0.1237437  -0.3712311   0.3712311), wk =   0.0007500
        k(  246) = (  -0.1060660  -0.3535534   0.3535534), wk =   0.0007500
        k(  247) = (  -0.0883883  -0.3358757   0.3358757), wk =   0.0007500
        k(  248) = (  -0.0707107  -0.3181981   0.3181981), wk =   0.0007500
        k(  249) = (  -0.0530330  -0.3005204   0.3005204), wk =   0.0007500
        k(  250) = (  -0.0353553  -0.2828427   0.2828427), wk =   0.0007500
        k(  251) = (  -0.0176777  -0.2651650   0.2651650), wk =   0.0007500
        k(  252) = (  -0.0000000  -0.2474874   0.2474874), wk =   0.0003750
        k(  253) = (   0.2828427   0.0000000   0.0000000), wk =   0.0001875
        k(  254) = (   0.3005204   0.0176777  -0.0176777), wk =   0.0007500
        k(  255) = (   0.3181981   0.0353553  -0.0353553), wk =   0.0007500
        k(  256) = (   0.3358757   0.0530330  -0.0530330), wk =   0.0007500
        k(  257) = (   0.3535534   0.0707107  -0.0707107), wk =   0.0007500
        k(  258) = (   0.3712311   0.0883883  -0.0883883), wk =   0.0007500
        k(  259) = (   0.3889087   0.1060660  -0.1060660), wk =   0.0007500
        k(  260) = (   0.4065864   0.1237437  -0.1237437), wk =   0.0007500
        k(  261) = (   0.4242641   0.1414214  -0.1414214), wk =   0.0007500
        k(  262) = (   0.4419417   0.1590990  -0.1590990), wk =   0.0007500
        k(  263) = (   0.4596194   0.1767767  -0.1767767), wk =   0.0007500
        k(  264) = (   0.4772971   0.1944544  -0.1944544), wk =   0.0007500
        k(  265) = (  -0.2121320  -0.4949747   0.4949747), wk =   0.0007500
        k(  266) = (  -0.1944544  -0.4772971   0.4772971), wk =   0.0007500
        k(  267) = (  -0.1767767  -0.4596194   0.4596194), wk =   0.0007500
        k(  268) = (  -0.1590990  -0.4419417   0.4419417), wk =   0.0007500
        k(  269) = (  -0.1414214  -0.4242641   0.4242641), wk =   0.0007500
        k(  270) = (  -0.1237437  -0.4065864   0.4065864), wk =   0.0007500
        k(  271) = (  -0.1060660  -0.3889087   0.3889087), wk =   0.0007500
        k(  272) = (  -0.0883883  -0.3712311   0.3712311), wk =   0.0007500
        k(  273) = (  -0.0707107  -0.3535534   0.3535534), wk =   0.0007500
        k(  274) = (  -0.0530330  -0.3358757   0.3358757), wk =   0.0007500
        k(  275) = (  -0.0353553  -0.3181981   0.3181981), wk =   0.0007500
        k(  276) = (  -0.0176777  -0.3005204   0.3005204), wk =   0.0007500
        k(  277) = (   0.0000000  -0.2828427   0.2828427), wk =   0.0003750
        k(  278) = (   0.3181981   0.0000000   0.0000000), wk =   0.0001875
        k(  279) = (   0.3358757   0.0176777  -0.0176777), wk =   0.0007500
        k(  280) = (   0.3535534   0.0353553  -0.0353553), wk =   0.0007500
        k(  281) = (   0.3712311   0.0530330  -0.0530330), wk =   0.0007500
        k(  282) = (   0.3889087   0.0707107  -0.0707107), wk =   0.0007500
        k(  283) = (   0.4065864   0.0883883  -0.0883883), wk =   0.0007500
        k(  284) = (   0.4242641   0.1060660  -0.1060660), wk =   0.0007500
        k(  285) = (   0.4419417   0.1237437  -0.1237437), wk =   0.0007500
        k(  286) = (   0.4596194   0.1414214  -0.1414214), wk =   0.0007500
        k(  287) = (   0.4772971   0.1590990  -0.1590990), wk =   0.0007500
        k(  288) = (   0.4949747   0.1767767  -0.1767767), wk =   0.0007500
        k(  289) = (  -0.1944544  -0.5126524   0.5126524), wk =   0.0007500
        k(  290) = (  -0.1767767  -0.4949747   0.4949747), wk =   0.0007500
        k(  291) = (  -0.1590990  -0.4772971   0.4772971), wk =   0.0007500
        k(  292) = (  -0.1414214  -0.4596194   0.4596194), wk =   0.0007500
        k(  293) = (  -0.1237437  -0.4419417   0.4419417), wk =   0.0007500
        k(  294) = (  -0.1060660  -0.4242641   0.4242641), wk =   0.0007500
        k(  295) = (  -0.0883883  -0.4065864   0.4065864), wk =   0.0007500
        k(  296) = (  -0.0707107  -0.3889087   0.3889087), wk =   0.0007500
        k(  297) = (  -0.0530330  -0.3712311   0.3712311), wk =   0.0007500
        k(  298) = (  -0.0353553  -0.3535534   0.3535534), wk =   0.0007500
        k(  299) = (  -0.0176777  -0.3358757   0.3358757), wk =   0.0007500
        k(  300) = (   0.0000000  -0.3181981   0.3181981), wk =   0.0003750
        k(  301) = (   0.3535534   0.0000000   0.0000000), wk =   0.0001875
        k(  302) = (   0.3712311   0.0176777  -0.0176777), wk =   0.0007500
        k(  303) = (   0.3889087   0.0353553  -0.0353553), wk =   0.0007500
        k(  304) = (   0.4065864   0.0530330  -0.0530330), wk =   0.0007500
        k(  305) = (   0.4242641   0.0707107  -0.0707107), wk =   0.0007500
        k(  306) = (   0.4419417   0.0883883  -0.0883883), wk =   0.0007500
        k(  307) = (   0.4596194   0.1060660  -0.1060660), wk =   0.0007500
        k(  308) = (   0.4772971   0.1237437  -0.1237437), wk =   0.0007500
        k(  309) = (   0.4949747   0.1414214  -0.1414214), wk =   0.0007500
        k(  310) = (   0.5126524   0.1590990  -0.1590990), wk =   0.0007500
        k(  311) = (  -0.1767767  -0.5303301   0.5303301), wk =   0.0007500
        k(  312) = (  -0.1590990  -0.5126524   0.5126524), wk =   0.0007500
        k(  313) = (  -0.1414214  -0.4949747   0.4949747), wk =   0.0007500
        k(  314) = (  -0.1237437  -0.4772971   0.4772971), wk =   0.0007500
        k(  315) = (  -0.1060660  -0.4596194   0.4596194), wk =   0.0007500
        k(  316) = (  -0.0883883  -0.4419417   0.4419417), wk =   0.0007500
        k(  317) = (  -0.0707107  -0.4242641   0.4242641), wk =   0.0007500
        k(  318) = (  -0.0530330  -0.4065864   0.4065864), wk =   0.0007500
        k(  319) = (  -0.0353553  -0.3889087   0.3889087), wk =   0.0007500
        k(  320) = (  -0.0176777  -0.3712311   0.3712311), wk =   0.0007500
        k(  321) = (   0.0000000  -0.3535534   0.3535534), wk =   0.0003750
        k(  322) = (   0.3889087   0.0000000   0.0000000), wk =   0.0001875
        k(  323) = (   0.4065864   0.0176777  -0.0176777), wk =   0.0007500
        k(  324) = (   0.4242641   0.0353553  -0.0353553), wk =   0.0007500
        k(  325) = (   0.4419417   0.0530330  -0.0530330), wk =   0.0007500
        k(  326) = (   0.4596194   0.0707107  -0.0707107), wk =   0.0007500
        k(  327) = (   0.4772971   0.0883883  -0.0883883), wk =   0.0007500
        k(  328) = (   0.4949747   0.1060660  -0.1060660), wk =   0.0007500
        k(  329) = (   0.5126524   0.1237437  -0.1237437), wk =   0.0007500
        k(  330) = (   0.5303301   0.1414214  -0.1414214), wk =   0.0007500
        k(  331) = (  -0.1590990  -0.5480078   0.5480078), wk =   0.0007500
        k(  332) = (  -0.1414214  -0.5303301   0.5303301), wk =   0.0007500
        k(  333) = (  -0.1237437  -0.5126524   0.5126524), wk =   0.0007500
        k(  334) = (  -0.1060660  -0.4949747   0.4949747), wk =   0.0007500
        k(  335) = (  -0.0883883  -0.4772971   0.4772971), wk =   0.0007500
        k(  336) = (  -0.0707107  -0.4596194   0.4596194), wk =   0.0007500
        k(  337) = (  -0.0530330  -0.4419417   0.4419417), wk =   0.0007500
        k(  338) = (  -0.0353553  -0.4242641   0.4242641), wk =   0.0007500
        k(  339) = (  -0.0176777  -0.4065864   0.4065864), wk =   0.0007500
        k(  340) = (   0.0000000  -0.3889087   0.3889087), wk =   0.0003750
        k(  341) = (   0.4242641   0.0000000   0.0000000), wk =   0.0001875
        k(  342) = (   0.4419417   0.0176777  -0.0176777), wk =   0.0007500
        k(  343) = (   0.4596194   0.0353553  -0.0353553), wk =   0.0007500
        k(  344) = (   0.4772971   0.0530330  -0.0530330), wk =   0.0007500
        k(  345) = (   0.4949747   0.0707107  -0.0707107), wk =   0.0007500
        k(  346) = (   0.5126524   0.0883883  -0.0883883), wk =   0.0007500
        k(  347) = (   0.5303301   0.1060660  -0.1060660), wk =   0.0007500
        k(  348) = (   0.5480078   0.1237437  -0.1237437), wk =   0.0007500
        k(  349) = (  -0.1414214  -0.5656854   0.5656854), wk =   0.0007500
        k(  350) = (  -0.1237437  -0.5480078   0.5480078), wk =   0.0007500
        k(  351) = (  -0.1060660  -0.5303301   0.5303301), wk =   0.0007500
        k(  352) = (  -0.0883883  -0.5126524   0.5126524), wk =   0.0007500
        k(  353) = (  -0.0707107  -0.4949747   0.4949747), wk =   0.0007500
        k(  354) = (  -0.0530330  -0.4772971   0.4772971), wk =   0.0007500
        k(  355) = (  -0.0353553  -0.4596194   0.4596194), wk =   0.0007500
        k(  356) = (  -0.0176777  -0.4419417   0.4419417), wk =   0.0007500
        k(  357) = (  -0.0000000  -0.4242641   0.4242641), wk =   0.0003750
        k(  358) = (   0.4596194   0.0000000   0.0000000), wk =   0.0001875
        k(  359) = (   0.4772971   0.0176777  -0.0176777), wk =   0.0007500
        k(  360) = (   0.4949747   0.0353553  -0.0353553), wk =   0.0007500
        k(  361) = (   0.5126524   0.0530330  -0.0530330), wk =   0.0007500
        k(  362) = (   0.5303301   0.0707107  -0.0707107), wk =   0.0007500
        k(  363) = (   0.5480078   0.0883883  -0.0883883), wk =   0.0007500
        k(  364) = (   0.5656854   0.1060660  -0.1060660), wk =   0.0007500
        k(  365) = (  -0.1237437  -0.5833631   0.5833631), wk =   0.0007500
        k(  366) = (  -0.1060660  -0.5656854   0.5656854), wk =   0.0007500
        k(  367) = (  -0.0883883  -0.5480078   0.5480078), wk =   0.0007500
        k(  368) = (  -0.0707107  -0.5303301   0.5303301), wk =   0.0007500
        k(  369) = (  -0.0530330  -0.5126524   0.5126524), wk =   0.0007500
        k(  370) = (  -0.0353553  -0.4949747   0.4949747), wk =   0.0007500
        k(  371) = (  -0.0176777  -0.4772971   0.4772971), wk =   0.0007500
        k(  372) = (   0.0000000  -0.4596194   0.4596194), wk =   0.0003750
        k(  373) = (   0.4949747   0.0000000   0.0000000), wk =   0.0001875
        k(  374) = (   0.5126524   0.0176777  -0.0176777), wk =   0.0007500
        k(  375) = (   0.5303301   0.0353553  -0.0353553), wk =   0.0007500
        k(  376) = (   0.5480078   0.0530330  -0.0530330), wk =   0.0007500
        k(  377) = (   0.5656854   0.0707107  -0.0707107), wk =   0.0007500
        k(  378) = (   0.5833631   0.0883883  -0.0883883), wk =   0.0007500
        k(  379) = (  -0.1060660  -0.6010408   0.6010408), wk =   0.0007500
        k(  380) = (  -0.0883883  -0.5833631   0.5833631), wk =   0.0007500
        k(  381) = (  -0.0707107  -0.5656854   0.5656854), wk =   0.0007500
        k(  382) = (  -0.0530330  -0.5480078   0.5480078), wk =   0.0007500
        k(  383) = (  -0.0353553  -0.5303301   0.5303301), wk =   0.0007500
        k(  384) = (  -0.0176777  -0.5126524   0.5126524), wk =   0.0007500
        k(  385) = (   0.0000000  -0.4949747   0.4949747), wk =   0.0003750
        k(  386) = (   0.5303301   0.0000000   0.0000000), wk =   0.0001875
        k(  387) = (   0.5480078   0.0176777  -0.0176777), wk =   0.0007500
        k(  388) = (   0.5656854   0.0353553  -0.0353553), wk =   0.0007500
        k(  389) = (   0.5833631   0.0530330  -0.0530330), wk =   0.0007500
        k(  390) = (   0.6010408   0.0707107  -0.0707107), wk =   0.0007500
        k(  391) = (  -0.0883883  -0.6187184   0.6187184), wk =   0.0007500
        k(  392) = (  -0.0707107  -0.6010408   0.6010408), wk =   0.0007500
        k(  393) = (  -0.0530330  -0.5833631   0.5833631), wk =   0.0007500
        k(  394) = (  -0.0353553  -0.5656854   0.5656854), wk =   0.0007500
        k(  395) = (  -0.0176777  -0.5480078   0.5480078), wk =   0.0007500
        k(  396) = (   0.0000000  -0.5303301   0.5303301), wk =   0.0003750
        k(  397) = (   0.5656854   0.0000000   0.0000000), wk =   0.0001875
        k(  398) = (   0.5833631   0.0176777  -0.0176777), wk =   0.0007500
        k(  399) = (   0.6010408   0.0353553  -0.0353553), wk =   0.0007500
        k(  400) = (   0.6187184   0.0530330  -0.0530330), wk =   0.0007500
        k(  401) = (  -0.0707107  -0.6363961   0.6363961), wk =   0.0007500
        k(  402) = (  -0.0530330  -0.6187184   0.6187184), wk =   0.0007500
        k(  403) = (  -0.0353553  -0.6010408   0.6010408), wk =   0.0007500
        k(  404) = (  -0.0176777  -0.5833631   0.5833631), wk =   0.0007500
        k(  405) = (   0.0000000  -0.5656854   0.5656854), wk =   0.0003750
        k(  406) = (   0.6010408   0.0000000   0.0000000), wk =   0.0001875
        k(  407) = (   0.6187184   0.0176777  -0.0176777), wk =   0.0007500
        k(  408) = (   0.6363961   0.0353553  -0.0353553), wk =   0.0007500
        k(  409) = (  -0.0530330  -0.6540738   0.6540738), wk =   0.0007500
        k(  410) = (  -0.0353553  -0.6363961   0.6363961), wk =   0.0007500
        k(  411) = (  -0.0176777  -0.6187184   0.6187184), wk =   0.0007500
        k(  412) = (  -0.0000000  -0.6010408   0.6010408), wk =   0.0003750
        k(  413) = (   0.6363961   0.0000000   0.0000000), wk =   0.0001875
        k(  414) = (   0.6540738   0.0176777  -0.0176777), wk =   0.0007500
        k(  415) = (  -0.0353553  -0.6717514   0.6717514), wk =   0.0007500
        k(  416) = (  -0.0176777  -0.6540738   0.6540738), wk =   0.0007500
        k(  417) = (   0.0000000  -0.6363961   0.6363961), wk =   0.0003750
        k(  418) = (   0.6717514   0.0000000   0.0000000), wk =   0.0001875
        k(  419) = (  -0.0176777  -0.6894291   0.6894291), wk =   0.0007500
        k(  420) = (   0.0000000  -0.6717514   0.6717514), wk =   0.0003750
        k(  421) = (  -0.7071068   0.0000000   0.0000000), wk =   0.0000937
        k(  422) = (   0.0707107   0.0353553   0.0000000), wk =   0.0007500
        k(  423) = (   0.0883883   0.0530330  -0.0176777), wk =   0.0015000
        k(  424) = (   0.1060660   0.0707107  -0.0353553), wk =   0.0015000
        k(  425) = (   0.1237437   0.0883883  -0.0530330), wk =   0.0015000
        k(  426) = (   0.1414214   0.1060660  -0.0707107), wk =   0.0015000
        k(  427) = (   0.1590990   0.1237437  -0.0883883), wk =   0.0015000
        k(  428) = (   0.1767767   0.1414214  -0.1060660), wk =   0.0015000
        k(  429) = (   0.1944544   0.1590990  -0.1237437), wk =   0.0015000
        k(  430) = (   0.2121320   0.1767767  -0.1414214), wk =   0.0015000
        k(  431) = (   0.2298097   0.1944544  -0.1590990), wk =   0.0015000
        k(  432) = (   0.2474874   0.2121320  -0.1767767), wk =   0.0015000
        k(  433) = (   0.2651650   0.2298097  -0.1944544), wk =   0.0015000
        k(  434) = (   0.2828427   0.2474874  -0.2121320), wk =   0.0015000
        k(  435) = (   0.3005204   0.2651650  -0.2298097), wk =   0.0015000
        k(  436) = (   0.3181981   0.2828427  -0.2474874), wk =   0.0015000
        k(  437) = (   0.3358757   0.3005204  -0.2651650), wk =   0.0015000
        k(  438) = (   0.3535534   0.3181981  -0.2828427), wk =   0.0015000
        k(  439) = (  -0.3358757  -0.3712311   0.4065864), wk =   0.0015000
        k(  440) = (  -0.3181981  -0.3535534   0.3889087), wk =   0.0007500
        k(  441) = (   0.1060660   0.0353553  -0.0000000), wk =   0.0007500
        k(  442) = (   0.1237437   0.0530330  -0.0176777), wk =   0.0015000
        k(  443) = (   0.1414214   0.0707107  -0.0353553), wk =   0.0015000
        k(  444) = (   0.1590990   0.0883883  -0.0530330), wk =   0.0015000
        k(  445) = (   0.1767767   0.1060660  -0.0707107), wk =   0.0015000
        k(  446) = (   0.1944544   0.1237437  -0.0883883), wk =   0.0015000
        k(  447) = (   0.2121320   0.1414214  -0.1060660), wk =   0.0015000
        k(  448) = (   0.2298097   0.1590990  -0.1237437), wk =   0.0015000
        k(  449) = (   0.2474874   0.1767767  -0.1414214), wk =   0.0015000
        k(  450) = (   0.2651650   0.1944544  -0.1590990), wk =   0.0015000
        k(  451) = (   0.2828427   0.2121320  -0.1767767), wk =   0.0015000
        k(  452) = (   0.3005204   0.2298097  -0.1944544), wk =   0.0015000
        k(  453) = (   0.3181981   0.2474874  -0.2121320), wk =   0.0015000
        k(  454) = (   0.3358757   0.2651650  -0.2298097), wk =   0.0015000
        k(  455) = (   0.3535534   0.2828427  -0.2474874), wk =   0.0015000
        k(  456) = (   0.3712311   0.3005204  -0.2651650), wk =   0.0015000
        k(  457) = (  -0.3181981  -0.3889087   0.4242641), wk =   0.0015000
        k(  458) = (  -0.3005204  -0.3712311   0.4065864), wk =   0.0015000
        k(  459) = (  -0.2828427  -0.3535534   0.3889087), wk =   0.0015000
        k(  460) = (  -0.2651650  -0.3358757   0.3712311), wk =   0.0015000
        k(  461) = (  -0.2474874  -0.3181981   0.3535534), wk =   0.0015000
        k(  462) = (  -0.2298097  -0.3005204   0.3358757), wk =   0.0015000
        k(  463) = (  -0.2121320  -0.2828427   0.3181981), wk =   0.0015000
        k(  464) = (  -0.1944544  -0.2651650   0.3005204), wk =   0.0015000
        k(  465) = (  -0.1767767  -0.2474874   0.2828427), wk =   0.0015000
        k(  466) = (  -0.1590990  -0.2298097   0.2651650), wk =   0.0015000
        k(  467) = (  -0.1414214  -0.2121320   0.2474874), wk =   0.0015000
        k(  468) = (  -0.1237437  -0.1944544   0.2298097), wk =   0.0015000
        k(  469) = (  -0.1060660  -0.1767767   0.2121320), wk =   0.0015000
        k(  470) = (  -0.0883883  -0.1590990   0.1944544), wk =   0.0015000
        k(  471) = (  -0.0707107  -0.1414214   0.1767767), wk =   0.0015000
        k(  472) = (  -0.0530330  -0.1237437   0.1590990), wk =   0.0015000
        k(  473) = (  -0.0353553  -0.1060660   0.1414214), wk =   0.0015000
        k(  474) = (  -0.0176777  -0.0883883   0.1237437), wk =   0.0015000
        k(  475) = (  -0.0000000  -0.0707107   0.1060660), wk =   0.0007500
        k(  476) = (   0.1414214   0.0353553   0.0000000), wk =   0.0007500
        k(  477) = (   0.1590990   0.0530330  -0.0176777), wk =   0.0015000
        k(  478) = (   0.1767767   0.0707107  -0.0353553), wk =   0.0015000
        k(  479) = (   0.1944544   0.0883883  -0.0530330), wk =   0.0015000
        k(  480) = (   0.2121320   0.1060660  -0.0707107), wk =   0.0015000
        k(  481) = (   0.2298097   0.1237437  -0.0883883), wk =   0.0015000
        k(  482) = (   0.2474874   0.1414214  -0.1060660), wk =   0.0015000
        k(  483) = (   0.2651650   0.1590990  -0.1237437), wk =   0.0015000
        k(  484) = (   0.2828427   0.1767767  -0.1414214), wk =   0.0015000
        k(  485) = (   0.3005204   0.1944544  -0.1590990), wk =   0.0015000
        k(  486) = (   0.3181981   0.2121320  -0.1767767), wk =   0.0015000
        k(  487) = (   0.3358757   0.2298097  -0.1944544), wk =   0.0015000
        k(  488) = (   0.3535534   0.2474874  -0.2121320), wk =   0.0015000
        k(  489) = (   0.3712311   0.2651650  -0.2298097), wk =   0.0015000
        k(  490) = (   0.3889087   0.2828427  -0.2474874), wk =   0.0015000
        k(  491) = (  -0.3005204  -0.4065864   0.4419417), wk =   0.0015000
        k(  492) = (  -0.2828427  -0.3889087   0.4242641), wk =   0.0015000
        k(  493) = (  -0.2651650  -0.3712311   0.4065864), wk =   0.0015000
        k(  494) = (  -0.2474874  -0.3535534   0.3889087), wk =   0.0015000
        k(  495) = (  -0.2298097  -0.3358757   0.3712311), wk =   0.0015000
        k(  496) = (  -0.2121320  -0.3181981   0.3535534), wk =   0.0015000
        k(  497) = (  -0.1944544  -0.3005204   0.3358757), wk =   0.0015000
        k(  498) = (  -0.1767767  -0.2828427   0.3181981), wk =   0.0015000
        k(  499) = (  -0.1590990  -0.2651650   0.3005204), wk =   0.0015000
        k(  500) = (  -0.1414214  -0.2474874   0.2828427), wk =   0.0015000
        k(  501) = (  -0.1237437  -0.2298097   0.2651650), wk =   0.0015000
        k(  502) = (  -0.1060660  -0.2121320   0.2474874), wk =   0.0015000
        k(  503) = (  -0.0883883  -0.1944544   0.2298097), wk =   0.0015000
        k(  504) = (  -0.0707107  -0.1767767   0.2121320), wk =   0.0015000
        k(  505) = (  -0.0530330  -0.1590990   0.1944544), wk =   0.0015000
        k(  506) = (  -0.0353553  -0.1414214   0.1767767), wk =   0.0015000
        k(  507) = (  -0.0176777  -0.1237437   0.1590990), wk =   0.0015000
        k(  508) = (   0.0000000  -0.1060660   0.1414214), wk =   0.0007500
        k(  509) = (   0.1767767   0.0353553   0.0000000), wk =   0.0007500
        k(  510) = (   0.1944544   0.0530330  -0.0176777), wk =   0.0015000
        k(  511) = (   0.2121320   0.0707107  -0.0353553), wk =   0.0015000
        k(  512) = (   0.2298097   0.0883883  -0.0530330), wk =   0.0015000
        k(  513) = (   0.2474874   0.1060660  -0.0707107), wk =   0.0015000
        k(  514) = (   0.2651650   0.1237437  -0.0883883), wk =   0.0015000
        k(  515) = (   0.2828427   0.1414214  -0.1060660), wk =   0.0015000
        k(  516) = (   0.3005204   0.1590990  -0.1237437), wk =   0.0015000
        k(  517) = (   0.3181981   0.1767767  -0.1414214), wk =   0.0015000
        k(  518) = (   0.3358757   0.1944544  -0.1590990), wk =   0.0015000
        k(  519) = (   0.3535534   0.2121320  -0.1767767), wk =   0.0015000
        k(  520) = (   0.3712311   0.2298097  -0.1944544), wk =   0.0015000
        k(  521) = (   0.3889087   0.2474874  -0.2121320), wk =   0.0015000
        k(  522) = (   0.4065864   0.2651650  -0.2298097), wk =   0.0015000
        k(  523) = (  -0.2828427  -0.4242641   0.4596194), wk =   0.0015000
        k(  524) = (  -0.2651650  -0.4065864   0.4419417), wk =   0.0015000
        k(  525) = (  -0.2474874  -0.3889087   0.4242641), wk =   0.0015000
        k(  526) = (  -0.2298097  -0.3712311   0.4065864), wk =   0.0015000
        k(  527) = (  -0.2121320  -0.3535534   0.3889087), wk =   0.0015000
        k(  528) = (  -0.1944544  -0.3358757   0.3712311), wk =   0.0015000
        k(  529) = (  -0.1767767  -0.3181981   0.3535534), wk =   0.0015000
        k(  530) = (  -0.1590990  -0.3005204   0.3358757), wk =   0.0015000
        k(  531) = (  -0.1414214  -0.2828427   0.3181981), wk =   0.0015000
        k(  532) = (  -0.1237437  -0.2651650   0.3005204), wk =   0.0015000
        k(  533) = (  -0.1060660  -0.2474874   0.2828427), wk =   0.0015000
        k(  534) = (  -0.0883883  -0.2298097   0.2651650), wk =   0.0015000
        k(  535) = (  -0.0707107  -0.2121320   0.2474874), wk =   0.0015000
        k(  536) = (  -0.0530330  -0.1944544   0.2298097), wk =   0.0015000
        k(  537) = (  -0.0353553  -0.1767767   0.2121320), wk =   0.0015000
        k(  538) = (  -0.0176777  -0.1590990   0.1944544), wk =   0.0015000
        k(  539) = (   0.0000000  -0.1414214   0.1767767), wk =   0.0007500
        k(  540) = (   0.2121320   0.0353553   0.0000000), wk =   0.0007500
        k(  541) = (   0.2298097   0.0530330  -0.0176777), wk =   0.0015000
        k(  542) = (   0.2474874   0.0707107  -0.0353553), wk =   0.0015000
        k(  543) = (   0.2651650   0.0883883  -0.0530330), wk =   0.0015000
        k(  544) = (   0.2828427   0.1060660  -0.0707107), wk =   0.0015000
        k(  545) = (   0.3005204   0.1237437  -0.0883883), wk =   0.0015000
        k(  546) = (   0.3181981   0.1414214  -0.1060660), wk =   0.0015000
        k(  547) = (   0.3358757   0.1590990  -0.1237437), wk =   0.0015000
        k(  548) = (   0.3535534   0.1767767  -0.1414214), wk =   0.0015000
        k(  549) = (   0.3712311   0.1944544  -0.1590990), wk =   0.0015000
        k(  550) = (   0.3889087   0.2121320  -0.1767767), wk =   0.0015000
        k(  551) = (   0.4065864   0.2298097  -0.1944544), wk =   0.0015000
        k(  552) = (   0.4242641   0.2474874  -0.2121320), wk =   0.0015000
        k(  553) = (  -0.2651650  -0.4419417   0.4772971), wk =   0.0015000
        k(  554) = (  -0.2474874  -0.4242641   0.4596194), wk =   0.0015000
        k(  555) = (  -0.2298097  -0.4065864   0.4419417), wk =   0.0015000
        k(  556) = (  -0.2121320  -0.3889087   0.4242641), wk =   0.0015000
        k(  557) = (  -0.1944544  -0.3712311   0.4065864), wk =   0.0015000
        k(  558) = (  -0.1767767  -0.3535534   0.3889087), wk =   0.0015000
        k(  559) = (  -0.1590990  -0.3358757   0.3712311), wk =   0.0015000
        k(  560) = (  -0.1414214  -0.3181981   0.3535534), wk =   0.0015000
        k(  561) = (  -0.1237437  -0.3005204   0.3358757), wk =   0.0015000
        k(  562) = (  -0.1060660  -0.2828427   0.3181981), wk =   0.0015000
        k(  563) = (  -0.0883883  -0.2651650   0.3005204), wk =   0.0015000
        k(  564) = (  -0.0707107  -0.2474874   0.2828427), wk =   0.0015000
        k(  565) = (  -0.0530330  -0.2298097   0.2651650), wk =   0.0015000
        k(  566) = (  -0.0353553  -0.2121320   0.2474874), wk =   0.0015000
        k(  567) = (  -0.0176777  -0.1944544   0.2298097), wk =   0.0015000
        k(  568) = (  -0.0000000  -0.1767767   0.2121320), wk =   0.0007500
        k(  569) = (   0.2474874   0.0353553  -0.0000000), wk =   0.0007500
        k(  570) = (   0.2651650   0.0530330  -0.0176777), wk =   0.0015000
        k(  571) = (   0.2828427   0.0707107  -0.0353553), wk =   0.0015000
        k(  572) = (   0.3005204   0.0883883  -0.0530330), wk =   0.0015000
        k(  573) = (   0.3181981   0.1060660  -0.0707107), wk =   0.0015000
        k(  574) = (   0.3358757   0.1237437  -0.0883883), wk =   0.0015000
        k(  575) = (   0.3535534   0.1414214  -0.1060660), wk =   0.0015000
        k(  576) = (   0.3712311   0.1590990  -0.1237437), wk =   0.0015000
        k(  577) = (   0.3889087   0.1767767  -0.1414214), wk =   0.0015000
        k(  578) = (   0.4065864   0.1944544  -0.1590990), wk =   0.0015000
        k(  579) = (   0.4242641   0.2121320  -0.1767767), wk =   0.0015000
        k(  580) = (   0.4419417   0.2298097  -0.1944544), wk =   0.0015000
        k(  581) = (  -0.2474874  -0.4596194   0.4949747), wk =   0.0015000
        k(  582) = (  -0.2298097  -0.4419417   0.4772971), wk =   0.0015000
        k(  583) = (  -0.2121320  -0.4242641   0.4596194), wk =   0.0015000
        k(  584) = (  -0.1944544  -0.4065864   0.4419417), wk =   0.0015000
        k(  585) = (  -0.1767767  -0.3889087   0.4242641), wk =   0.0015000
        k(  586) = (  -0.1590990  -0.3712311   0.4065864), wk =   0.0015000
        k(  587) = (  -0.1414214  -0.3535534   0.3889087), wk =   0.0015000
        k(  588) = (  -0.1237437  -0.3358757   0.3712311), wk =   0.0015000
        k(  589) = (  -0.1060660  -0.3181981   0.3535534), wk =   0.0015000
        k(  590) = (  -0.0883883  -0.3005204   0.3358757), wk =   0.0015000
        k(  591) = (  -0.0707107  -0.2828427   0.3181981), wk =   0.0015000
        k(  592) = (  -0.0530330  -0.2651650   0.3005204), wk =   0.0015000
        k(  593) = (  -0.0353553  -0.2474874   0.2828427), wk =   0.0015000
        k(  594) = (  -0.0176777  -0.2298097   0.2651650), wk =   0.0015000
        k(  595) = (  -0.0000000  -0.2121320   0.2474874), wk =   0.0007500
        k(  596) = (   0.2828427   0.0353553   0.0000000), wk =   0.0007500
        k(  597) = (   0.3005204   0.0530330  -0.0176777), wk =   0.0015000
        k(  598) = (   0.3181981   0.0707107  -0.0353553), wk =   0.0015000
        k(  599) = (   0.3358757   0.0883883  -0.0530330), wk =   0.0015000
        k(  600) = (   0.3535534   0.1060660  -0.0707107), wk =   0.0015000
        k(  601) = (   0.3712311   0.1237437  -0.0883883), wk =   0.0015000
        k(  602) = (   0.3889087   0.1414214  -0.1060660), wk =   0.0015000
        k(  603) = (   0.4065864   0.1590990  -0.1237437), wk =   0.0015000
        k(  604) = (   0.4242641   0.1767767  -0.1414214), wk =   0.0015000
        k(  605) = (   0.4419417   0.1944544  -0.1590990), wk =   0.0015000
        k(  606) = (   0.4596194   0.2121320  -0.1767767), wk =   0.0015000
        k(  607) = (  -0.2298097  -0.4772971   0.5126524), wk =   0.0015000
        k(  608) = (  -0.2121320  -0.4596194   0.4949747), wk =   0.0015000
        k(  609) = (  -0.1944544  -0.4419417   0.4772971), wk =   0.0015000
        k(  610) = (  -0.1767767  -0.4242641   0.4596194), wk =   0.0015000
        k(  611) = (  -0.1590990  -0.4065864   0.4419417), wk =   0.0015000
        k(  612) = (  -0.1414214  -0.3889087   0.4242641), wk =   0.0015000
        k(  613) = (  -0.1237437  -0.3712311   0.4065864), wk =   0.0015000
        k(  614) = (  -0.1060660  -0.3535534   0.3889087), wk =   0.0015000
        k(  615) = (  -0.0883883  -0.3358757   0.3712311), wk =   0.0015000
        k(  616) = (  -0.0707107  -0.3181981   0.3535534), wk =   0.0015000
        k(  617) = (  -0.0530330  -0.3005204   0.3358757), wk =   0.0015000
        k(  618) = (  -0.0353553  -0.2828427   0.3181981), wk =   0.0015000
        k(  619) = (  -0.0176777  -0.2651650   0.3005204), wk =   0.0015000
        k(  620) = (  -0.0000000  -0.2474874   0.2828427), wk =   0.0007500
        k(  621) = (   0.3181981   0.0353553   0.0000000), wk =   0.0007500
        k(  622) = (   0.3358757   0.0530330  -0.0176777), wk =   0.0015000
        k(  623) = (   0.3535534   0.0707107  -0.0353553), wk =   0.0015000
        k(  624) = (   0.3712311   0.0883883  -0.0530330), wk =   0.0015000
        k(  625) = (   0.3889087   0.1060660  -0.0707107), wk =   0.0015000
        k(  626) = (   0.4065864   0.1237437  -0.0883883), wk =   0.0015000
        k(  627) = (   0.4242641   0.1414214  -0.1060660), wk =   0.0015000
        k(  628) = (   0.4419417   0.1590990  -0.1237437), wk =   0.0015000
        k(  629) = (   0.4596194   0.1767767  -0.1414214), wk =   0.0015000
        k(  630) = (   0.4772971   0.1944544  -0.1590990), wk =   0.0015000
        k(  631) = (  -0.2121320  -0.4949747   0.5303301), wk =   0.0015000
        k(  632) = (  -0.1944544  -0.4772971   0.5126524), wk =   0.0015000
        k(  633) = (  -0.1767767  -0.4596194   0.4949747), wk =   0.0015000
        k(  634) = (  -0.1590990  -0.4419417   0.4772971), wk =   0.0015000
        k(  635) = (  -0.1414214  -0.4242641   0.4596194), wk =   0.0015000
        k(  636) = (  -0.1237437  -0.4065864   0.4419417), wk =   0.0015000
        k(  637) = (  -0.1060660  -0.3889087   0.4242641), wk =   0.0015000
        k(  638) = (  -0.0883883  -0.3712311   0.4065864), wk =   0.0015000
        k(  639) = (  -0.0707107  -0.3535534   0.3889087), wk =   0.0015000
        k(  640) = (  -0.0530330  -0.3358757   0.3712311), wk =   0.0015000
        k(  641) = (  -0.0353553  -0.3181981   0.3535534), wk =   0.0015000
        k(  642) = (  -0.0176777  -0.3005204   0.3358757), wk =   0.0015000
        k(  643) = (   0.0000000  -0.2828427   0.3181981), wk =   0.0007500
        k(  644) = (   0.3535534   0.0353553   0.0000000), wk =   0.0007500
        k(  645) = (   0.3712311   0.0530330  -0.0176777), wk =   0.0015000
        k(  646) = (   0.3889087   0.0707107  -0.0353553), wk =   0.0015000
        k(  647) = (   0.4065864   0.0883883  -0.0530330), wk =   0.0015000
        k(  648) = (   0.4242641   0.1060660  -0.0707107), wk =   0.0015000
        k(  649) = (   0.4419417   0.1237437  -0.0883883), wk =   0.0015000
        k(  650) = (   0.4596194   0.1414214  -0.1060660), wk =   0.0015000
        k(  651) = (   0.4772971   0.1590990  -0.1237437), wk =   0.0015000
        k(  652) = (   0.4949747   0.1767767  -0.1414214), wk =   0.0015000
        k(  653) = (  -0.1944544  -0.5126524   0.5480078), wk =   0.0015000
        k(  654) = (  -0.1767767  -0.4949747   0.5303301), wk =   0.0015000
        k(  655) = (  -0.1590990  -0.4772971   0.5126524), wk =   0.0015000
        k(  656) = (  -0.1414214  -0.4596194   0.4949747), wk =   0.0015000
        k(  657) = (  -0.1237437  -0.4419417   0.4772971), wk =   0.0015000
        k(  658) = (  -0.1060660  -0.4242641   0.4596194), wk =   0.0015000
        k(  659) = (  -0.0883883  -0.4065864   0.4419417), wk =   0.0015000
        k(  660) = (  -0.0707107  -0.3889087   0.4242641), wk =   0.0015000
        k(  661) = (  -0.0530330  -0.3712311   0.4065864), wk =   0.0015000
        k(  662) = (  -0.0353553  -0.3535534   0.3889087), wk =   0.0015000
        k(  663) = (  -0.0176777  -0.3358757   0.3712311), wk =   0.0015000
        k(  664) = (   0.0000000  -0.3181981   0.3535534), wk =   0.0007500
        k(  665) = (   0.3889087   0.0353553   0.0000000), wk =   0.0007500
        k(  666) = (   0.4065864   0.0530330  -0.0176777), wk =   0.0015000
        k(  667) = (   0.4242641   0.0707107  -0.0353553), wk =   0.0015000
        k(  668) = (   0.4419417   0.0883883  -0.0530330), wk =   0.0015000
        k(  669) = (   0.4596194   0.1060660  -0.0707107), wk =   0.0015000
        k(  670) = (   0.4772971   0.1237437  -0.0883883), wk =   0.0015000
        k(  671) = (   0.4949747   0.1414214  -0.1060660), wk =   0.0015000
        k(  672) = (   0.5126524   0.1590990  -0.1237437), wk =   0.0015000
        k(  673) = (  -0.1767767  -0.5303301   0.5656854), wk =   0.0015000
        k(  674) = (  -0.1590990  -0.5126524   0.5480078), wk =   0.0015000
        k(  675) = (  -0.1414214  -0.4949747   0.5303301), wk =   0.0015000
        k(  676) = (  -0.1237437  -0.4772971   0.5126524), wk =   0.0015000
        k(  677) = (  -0.1060660  -0.4596194   0.4949747), wk =   0.0015000
        k(  678) = (  -0.0883883  -0.4419417   0.4772971), wk =   0.0015000
        k(  679) = (  -0.0707107  -0.4242641   0.4596194), wk =   0.0015000
        k(  680) = (  -0.0530330  -0.4065864   0.4419417), wk =   0.0015000
        k(  681) = (  -0.0353553  -0.3889087   0.4242641), wk =   0.0015000
        k(  682) = (  -0.0176777  -0.3712311   0.4065864), wk =   0.0015000
        k(  683) = (   0.0000000  -0.3535534   0.3889087), wk =   0.0007500
        k(  684) = (   0.4242641   0.0353553  -0.0000000), wk =   0.0007500
        k(  685) = (   0.4419417   0.0530330  -0.0176777), wk =   0.0015000
        k(  686) = (   0.4596194   0.0707107  -0.0353553), wk =   0.0015000
        k(  687) = (   0.4772971   0.0883883  -0.0530330), wk =   0.0015000
        k(  688) = (   0.4949747   0.1060660  -0.0707107), wk =   0.0015000
        k(  689) = (   0.5126524   0.1237437  -0.0883883), wk =   0.0015000
        k(  690) = (   0.5303301   0.1414214  -0.1060660), wk =   0.0015000
        k(  691) = (  -0.1590990  -0.5480078   0.5833631), wk =   0.0015000
        k(  692) = (  -0.1414214  -0.5303301   0.5656854), wk =   0.0015000
        k(  693) = (  -0.1237437  -0.5126524   0.5480078), wk =   0.0015000
        k(  694) = (  -0.1060660  -0.4949747   0.5303301), wk =   0.0015000
        k(  695) = (  -0.0883883  -0.4772971   0.5126524), wk =   0.0015000
        k(  696) = (  -0.0707107  -0.4596194   0.4949747), wk =   0.0015000
        k(  697) = (  -0.0530330  -0.4419417   0.4772971), wk =   0.0015000
        k(  698) = (  -0.0353553  -0.4242641   0.4596194), wk =   0.0015000
        k(  699) = (  -0.0176777  -0.4065864   0.4419417), wk =   0.0015000
        k(  700) = (  -0.0000000  -0.3889087   0.4242641), wk =   0.0007500
        k(  701) = (   0.4596194   0.0353553   0.0000000), wk =   0.0007500
        k(  702) = (   0.4772971   0.0530330  -0.0176777), wk =   0.0015000
        k(  703) = (   0.4949747   0.0707107  -0.0353553), wk =   0.0015000
        k(  704) = (   0.5126524   0.0883883  -0.0530330), wk =   0.0015000
        k(  705) = (   0.5303301   0.1060660  -0.0707107), wk =   0.0015000
        k(  706) = (   0.5480078   0.1237437  -0.0883883), wk =   0.0015000
        k(  707) = (  -0.1414214  -0.5656854   0.6010408), wk =   0.0015000
        k(  708) = (  -0.1237437  -0.5480078   0.5833631), wk =   0.0015000
        k(  709) = (  -0.1060660  -0.5303301   0.5656854), wk =   0.0015000
        k(  710) = (  -0.0883883  -0.5126524   0.5480078), wk =   0.0015000
        k(  711) = (  -0.0707107  -0.4949747   0.5303301), wk =   0.0015000
        k(  712) = (  -0.0530330  -0.4772971   0.5126524), wk =   0.0015000
        k(  713) = (  -0.0353553  -0.4596194   0.4949747), wk =   0.0015000
        k(  714) = (  -0.0176777  -0.4419417   0.4772971), wk =   0.0015000
        k(  715) = (  -0.0000000  -0.4242641   0.4596194), wk =   0.0007500
        k(  716) = (   0.4949747   0.0353553   0.0000000), wk =   0.0007500
        k(  717) = (   0.5126524   0.0530330  -0.0176777), wk =   0.0015000
        k(  718) = (   0.5303301   0.0707107  -0.0353553), wk =   0.0015000
        k(  719) = (   0.5480078   0.0883883  -0.0530330), wk =   0.0015000
        k(  720) = (   0.5656854   0.1060660  -0.0707107), wk =   0.0015000
        k(  721) = (  -0.1237437  -0.5833631   0.6187184), wk =   0.0015000
        k(  722) = (  -0.1060660  -0.5656854   0.6010408), wk =   0.0015000
        k(  723) = (  -0.0883883  -0.5480078   0.5833631), wk =   0.0015000
        k(  724) = (  -0.0707107  -0.5303301   0.5656854), wk =   0.0015000
        k(  725) = (  -0.0530330  -0.5126524   0.5480078), wk =   0.0015000
        k(  726) = (  -0.0353553  -0.4949747   0.5303301), wk =   0.0015000
        k(  727) = (  -0.0176777  -0.4772971   0.5126524), wk =   0.0015000
        k(  728) = (   0.0000000  -0.4596194   0.4949747), wk =   0.0007500
        k(  729) = (   0.5303301   0.0353553  -0.0000000), wk =   0.0007500
        k(  730) = (   0.5480078   0.0530330  -0.0176777), wk =   0.0015000
        k(  731) = (   0.5656854   0.0707107  -0.0353553), wk =   0.0015000
        k(  732) = (   0.5833631   0.0883883  -0.0530330), wk =   0.0015000
        k(  733) = (  -0.1060660  -0.6010408   0.6363961), wk =   0.0015000
        k(  734) = (  -0.0883883  -0.5833631   0.6187184), wk =   0.0015000
        k(  735) = (  -0.0707107  -0.5656854   0.6010408), wk =   0.0015000
        k(  736) = (  -0.0530330  -0.5480078   0.5833631), wk =   0.0015000
        k(  737) = (  -0.0353553  -0.5303301   0.5656854), wk =   0.0015000
        k(  738) = (  -0.0176777  -0.5126524   0.5480078), wk =   0.0015000
        k(  739) = (  -0.0000000  -0.4949747   0.5303301), wk =   0.0007500
        k(  740) = (   0.5656854   0.0353553   0.0000000), wk =   0.0007500
        k(  741) = (   0.5833631   0.0530330  -0.0176777), wk =   0.0015000
        k(  742) = (   0.6010408   0.0707107  -0.0353553), wk =   0.0015000
        k(  743) = (  -0.0883883  -0.6187184   0.6540738), wk =   0.0015000
        k(  744) = (  -0.0707107  -0.6010408   0.6363961), wk =   0.0015000
        k(  745) = (  -0.0530330  -0.5833631   0.6187184), wk =   0.0015000
        k(  746) = (  -0.0353553  -0.5656854   0.6010408), wk =   0.0015000
        k(  747) = (  -0.0176777  -0.5480078   0.5833631), wk =   0.0015000
        k(  748) = (   0.0000000  -0.5303301   0.5656854), wk =   0.0007500
        k(  749) = (   0.6010408   0.0353553   0.0000000), wk =   0.0007500
        k(  750) = (   0.6187184   0.0530330  -0.0176777), wk =   0.0015000
        k(  751) = (  -0.0707107  -0.6363961   0.6717514), wk =   0.0015000
        k(  752) = (  -0.0530330  -0.6187184   0.6540738), wk =   0.0015000
        k(  753) = (  -0.0353553  -0.6010408   0.6363961), wk =   0.0015000
        k(  754) = (  -0.0176777  -0.5833631   0.6187184), wk =   0.0015000
        k(  755) = (  -0.0000000  -0.5656854   0.6010408), wk =   0.0007500
        k(  756) = (   0.6363961   0.0353553   0.0000000), wk =   0.0007500
        k(  757) = (  -0.0530330  -0.6540738   0.6894291), wk =   0.0015000
        k(  758) = (  -0.0353553  -0.6363961   0.6717514), wk =   0.0015000
        k(  759) = (  -0.0176777  -0.6187184   0.6540738), wk =   0.0015000
        k(  760) = (  -0.0000000  -0.6010408   0.6363961), wk =   0.0007500
        k(  761) = (  -0.0353553  -0.6717514   0.7071068), wk =   0.0007500
        k(  762) = (  -0.0176777  -0.6540738   0.6894291), wk =   0.0015000
        k(  763) = (   0.0000000  -0.6363961   0.6717514), wk =   0.0007500
        k(  764) = (  -0.7071068   0.0353553   0.0000000), wk =   0.0003750
        k(  765) = (   0.1414214   0.0707107   0.0000000), wk =   0.0007500
        k(  766) = (   0.1590990   0.0883883  -0.0176777), wk =   0.0015000
        k(  767) = (   0.1767767   0.1060660  -0.0353553), wk =   0.0015000
        k(  768) = (   0.1944544   0.1237437  -0.0530330), wk =   0.0015000
        k(  769) = (   0.2121320   0.1414214  -0.0707107), wk =   0.0015000
        k(  770) = (   0.2298097   0.1590990  -0.0883883), wk =   0.0015000
        k(  771) = (   0.2474874   0.1767767  -0.1060660), wk =   0.0015000
        k(  772) = (   0.2651650   0.1944544  -0.1237437), wk =   0.0015000
        k(  773) = (   0.2828427   0.2121320  -0.1414214), wk =   0.0015000
        k(  774) = (   0.3005204   0.2298097  -0.1590990), wk =   0.0015000
        k(  775) = (   0.3181981   0.2474874  -0.1767767), wk =   0.0015000
        k(  776) = (   0.3358757   0.2651650  -0.1944544), wk =   0.0015000
        k(  777) = (   0.3535534   0.2828427  -0.2121320), wk =   0.0015000
        k(  778) = (   0.3712311   0.3005204  -0.2298097), wk =   0.0015000
        k(  779) = (  -0.3181981  -0.3889087   0.4596194), wk =   0.0015000
        k(  780) = (  -0.3005204  -0.3712311   0.4419417), wk =   0.0015000
        k(  781) = (  -0.2828427  -0.3535534   0.4242641), wk =   0.0007500
        k(  782) = (   0.1767767   0.0707107   0.0000000), wk =   0.0007500
        k(  783) = (   0.1944544   0.0883883  -0.0176777), wk =   0.0015000
        k(  784) = (   0.2121320   0.1060660  -0.0353553), wk =   0.0015000
        k(  785) = (   0.2298097   0.1237437  -0.0530330), wk =   0.0015000
        k(  786) = (   0.2474874   0.1414214  -0.0707107), wk =   0.0015000
        k(  787) = (   0.2651650   0.1590990  -0.0883883), wk =   0.0015000
        k(  788) = (   0.2828427   0.1767767  -0.1060660), wk =   0.0015000
        k(  789) = (   0.3005204   0.1944544  -0.1237437), wk =   0.0015000
        k(  790) = (   0.3181981   0.2121320  -0.1414214), wk =   0.0015000
        k(  791) = (   0.3358757   0.2298097  -0.1590990), wk =   0.0015000
        k(  792) = (   0.3535534   0.2474874  -0.1767767), wk =   0.0015000
        k(  793) = (   0.3712311   0.2651650  -0.1944544), wk =   0.0015000
        k(  794) = (   0.3889087   0.2828427  -0.2121320), wk =   0.0015000
        k(  795) = (  -0.3005204  -0.4065864   0.4772971), wk =   0.0015000
        k(  796) = (  -0.2828427  -0.3889087   0.4596194), wk =   0.0015000
        k(  797) = (  -0.2651650  -0.3712311   0.4419417), wk =   0.0015000
        k(  798) = (  -0.2474874  -0.3535534   0.4242641), wk =   0.0015000
        k(  799) = (  -0.2298097  -0.3358757   0.4065864), wk =   0.0015000
        k(  800) = (  -0.2121320  -0.3181981   0.3889087), wk =   0.0015000
        k(  801) = (  -0.1944544  -0.3005204   0.3712311), wk =   0.0015000
        k(  802) = (  -0.1767767  -0.2828427   0.3535534), wk =   0.0015000
        k(  803) = (  -0.1590990  -0.2651650   0.3358757), wk =   0.0015000
        k(  804) = (  -0.1414214  -0.2474874   0.3181981), wk =   0.0015000
        k(  805) = (  -0.1237437  -0.2298097   0.3005204), wk =   0.0015000
        k(  806) = (  -0.1060660  -0.2121320   0.2828427), wk =   0.0015000
        k(  807) = (  -0.0883883  -0.1944544   0.2651650), wk =   0.0015000
        k(  808) = (  -0.0707107  -0.1767767   0.2474874), wk =   0.0015000
        k(  809) = (  -0.0530330  -0.1590990   0.2298097), wk =   0.0015000
        k(  810) = (  -0.0353553  -0.1414214   0.2121320), wk =   0.0015000
        k(  811) = (  -0.0176777  -0.1237437   0.1944544), wk =   0.0015000
        k(  812) = (   0.0000000  -0.1060660   0.1767767), wk =   0.0007500
        k(  813) = (   0.2121320   0.0707107  -0.0000000), wk =   0.0007500
        k(  814) = (   0.2298097   0.0883883  -0.0176777), wk =   0.0015000
        k(  815) = (   0.2474874   0.1060660  -0.0353553), wk =   0.0015000
        k(  816) = (   0.2651650   0.1237437  -0.0530330), wk =   0.0015000
        k(  817) = (   0.2828427   0.1414214  -0.0707107), wk =   0.0015000
        k(  818) = (   0.3005204   0.1590990  -0.0883883), wk =   0.0015000
        k(  819) = (   0.3181981   0.1767767  -0.1060660), wk =   0.0015000
        k(  820) = (   0.3358757   0.1944544  -0.1237437), wk =   0.0015000
        k(  821) = (   0.3535534   0.2121320  -0.1414214), wk =   0.0015000
        k(  822) = (   0.3712311   0.2298097  -0.1590990), wk =   0.0015000
        k(  823) = (   0.3889087   0.2474874  -0.1767767), wk =   0.0015000
        k(  824) = (   0.4065864   0.2651650  -0.1944544), wk =   0.0015000
        k(  825) = (  -0.2828427  -0.4242641   0.4949747), wk =   0.0015000
        k(  826) = (  -0.2651650  -0.4065864   0.4772971), wk =   0.0015000
        k(  827) = (  -0.2474874  -0.3889087   0.4596194), wk =   0.0015000
        k(  828) = (  -0.2298097  -0.3712311   0.4419417), wk =   0.0015000
        k(  829) = (  -0.2121320  -0.3535534   0.4242641), wk =   0.0015000
        k(  830) = (  -0.1944544  -0.3358757   0.4065864), wk =   0.0015000
        k(  831) = (  -0.1767767  -0.3181981   0.3889087), wk =   0.0015000
        k(  832) = (  -0.1590990  -0.3005204   0.3712311), wk =   0.0015000
        k(  833) = (  -0.1414214  -0.2828427   0.3535534), wk =   0.0015000
        k(  834) = (  -0.1237437  -0.2651650   0.3358757), wk =   0.0015000
        k(  835) = (  -0.1060660  -0.2474874   0.3181981), wk =   0.0015000
        k(  836) = (  -0.0883883  -0.2298097   0.3005204), wk =   0.0015000
        k(  837) = (  -0.0707107  -0.2121320   0.2828427), wk =   0.0015000
        k(  838) = (  -0.0530330  -0.1944544   0.2651650), wk =   0.0015000
        k(  839) = (  -0.0353553  -0.1767767   0.2474874), wk =   0.0015000
        k(  840) = (  -0.0176777  -0.1590990   0.2298097), wk =   0.0015000
        k(  841) = (   0.0000000  -0.1414214   0.2121320), wk =   0.0007500
        k(  842) = (   0.2474874   0.0707107   0.0000000), wk =   0.0007500
        k(  843) = (   0.2651650   0.0883883  -0.0176777), wk =   0.0015000
        k(  844) = (   0.2828427   0.1060660  -0.0353553), wk =   0.0015000
        k(  845) = (   0.3005204   0.1237437  -0.0530330), wk =   0.0015000
        k(  846) = (   0.3181981   0.1414214  -0.0707107), wk =   0.0015000
        k(  847) = (   0.3358757   0.1590990  -0.0883883), wk =   0.0015000
        k(  848) = (   0.3535534   0.1767767  -0.1060660), wk =   0.0015000
        k(  849) = (   0.3712311   0.1944544  -0.1237437), wk =   0.0015000
        k(  850) = (   0.3889087   0.2121320  -0.1414214), wk =   0.0015000
        k(  851) = (   0.4065864   0.2298097  -0.1590990), wk =   0.0015000
        k(  852) = (   0.4242641   0.2474874  -0.1767767), wk =   0.0015000
        k(  853) = (  -0.2651650  -0.4419417   0.5126524), wk =   0.0015000
        k(  854) = (  -0.2474874  -0.4242641   0.4949747), wk =   0.0015000
        k(  855) = (  -0.2298097  -0.4065864   0.4772971), wk =   0.0015000
        k(  856) = (  -0.2121320  -0.3889087   0.4596194), wk =   0.0015000
        k(  857) = (  -0.1944544  -0.3712311   0.4419417), wk =   0.0015000
        k(  858) = (  -0.1767767  -0.3535534   0.4242641), wk =   0.0015000
        k(  859) = (  -0.1590990  -0.3358757   0.4065864), wk =   0.0015000
        k(  860) = (  -0.1414214  -0.3181981   0.3889087), wk =   0.0015000
        k(  861) = (  -0.1237437  -0.3005204   0.3712311), wk =   0.0015000
        k(  862) = (  -0.1060660  -0.2828427   0.3535534), wk =   0.0015000
        k(  863) = (  -0.0883883  -0.2651650   0.3358757), wk =   0.0015000
        k(  864) = (  -0.0707107  -0.2474874   0.3181981), wk =   0.0015000
        k(  865) = (  -0.0530330  -0.2298097   0.3005204), wk =   0.0015000
        k(  866) = (  -0.0353553  -0.2121320   0.2828427), wk =   0.0015000
        k(  867) = (  -0.0176777  -0.1944544   0.2651650), wk =   0.0015000
        k(  868) = (   0.0000000  -0.1767767   0.2474874), wk =   0.0007500
[...]
     0.0000   0.0000   0.0000   0.0000   0.0000   0.0000   0.0000   0.0000
     0.0000   0.0000   0.0000   0.0000   0.0000   0.0000   0.0000   0.0000
     0.0000   0.0000   0.0000   0.0000   0.0000   0.0000   0.0000   0.0000
     0.0000   0.0000   0.0000   0.0000   0.0000   0.0000   0.0000   0.0000
     0.0000   0.0000   0.0000   0.0000   0.0000   0.0000   0.0000   0.0000
     0.0000   0.0000   0.0000   0.0000   0.0000   0.0000   0.0000   0.0000
     0.0000   0.0000   0.0000   0.0000   0.0000   0.0000   0.0000   0.0000
     0.0000   0.0000   0.0000   0.0000   0.0000   0.0000

          k =-0.0354-0.4243 0.7071 (  2946 PWs)   bands (ev):

    -5.4067  -1.7180   1.3865   1.7006   8.9040   9.0941  11.1563  12.0311
    15.8231  17.4213  18.2763  19.2406  21.8303  22.7821  23.5332  23.5860
    24.4951  25.2690  27.8248  28.0958  29.6592  30.0523  30.6279  31.5643
    33.0952  33.8357  34.2642  35.0253  38.3339  39.9257  40.7975  41.5346
    42.2986  42.5976  45.6479  46.2368  48.0134  48.9345  49.4126  49.5177
    51.4897  51.9041  52.2539  52.8211  54.0669  54.2804  55.0506  55.4352
    56.9237  58.1140  59.0729  60.4604  60.9485  61.1693  62.0393  63.2722
    63.7308  65.0477  65.8687  65.9363  66.7073  67.1400  67.7173  68.2290
    69.2324  70.4355  70.8455  71.6652  73.3321  74.4373

     occupation numbers 
     1.0000   1.0000   1.0000   1.0000   0.0000   0.0000   0.0000   0.0000
     0.0000   0.0000   0.0000   0.0000   0.0000   0.0000   0.0000   0.0000
     0.0000   0.0000   0.0000   0.0000   0.0000   0.0000   0.0000   0.0000
     0.0000   0.0000   0.0000   0.0000   0.0000   0.0000   0.0000   0.0000
     0.0000   0.0000   0.0000   0.0000   0.0000   0.0000   0.0000   0.0000
     0.0000   0.0000   0.0000   0.0000   0.0000   0.0000   0.0000   0.0000
     0.0000   0.0000   0.0000   0.0000   0.0000   0.0000   0.0000   0.0000
     0.0000   0.0000   0.0000   0.0000   0.0000   0.0000   0.0000   0.0000
     0.0000   0.0000   0.0000   0.0000   0.0000   0.0000

          k =-0.0177-0.4066 0.6894 (  2952 PWs)   bands (ev):

    -5.3929  -1.7210   1.3480   1.6636   9.0331   9.4200  11.0728  11.5790
    15.8996  17.4132  18.2659  19.2278  21.9392  22.9203  23.3012  23.8438
    24.3204  25.4291  27.4884  28.4796  29.6820  30.1660  30.9516  31.6413
    32.9320  33.4933  33.8232  34.6188  38.8883  39.7577  40.4939  41.5099
    42.4065  42.9245  45.2848  46.4883  48.4586  48.8958  49.2591  50.3689
    51.4000  51.7985  52.0676  53.0632  53.3244  53.9826  54.7195  55.7573
    57.5310  58.3529  59.0970  60.2737  60.6903  61.5638  61.9848  62.8634
    63.3510  65.0949  65.5835  66.5036  66.7341  67.1143  67.8254  68.1349
    69.0172  69.5865  71.1507  71.5706  74.1953  74.9124

     occupation numbers 
     1.0000   1.0000   1.0000   1.0000   0.0000   0.0000   0.0000   0.0000
     0.0000   0.0000   0.0000   0.0000   0.0000   0.0000   0.0000   0.0000
     0.0000   0.0000   0.0000   0.0000   0.0000   0.0000   0.0000   0.0000
     0.0000   0.0000   0.0000   0.0000   0.0000   0.0000   0.0000   0.0000
     0.0000   0.0000   0.0000   0.0000   0.0000   0.0000   0.0000   0.0000
     0.0000   0.0000   0.0000   0.0000   0.0000   0.0000   0.0000   0.0000
     0.0000   0.0000   0.0000   0.0000   0.0000   0.0000   0.0000   0.0000
     0.0000   0.0000   0.0000   0.0000   0.0000   0.0000   0.0000   0.0000
     0.0000   0.0000   0.0000   0.0000   0.0000   0.0000

          k =-0.0000-0.3889 0.6718 (  2955 PWs)   bands (ev):

    -5.3955  -1.7113   1.2780   1.7074   9.0989   9.7698  10.9073  11.3036
    15.8134  17.3562  18.2760  19.3427  21.8492  22.6947  23.4870  24.0521
    24.3244  25.6863  27.1467  28.6719  29.5367  30.2594  31.5358  31.8771
    32.6544  32.9060  33.8258  34.3777  38.9078  39.6565  40.3159  41.6934
    42.3595  43.3901  44.9926  46.6741  48.5211  49.0625  49.1701  50.9998
    51.2712  51.6046  52.1254  52.2848  53.2855  53.7312  54.9762  56.2403
    57.8495  58.4632  58.9318  59.7411  60.9296  61.3680  62.2739  62.7531
    63.4119  64.5487  65.4405  66.2428  66.7378  67.1872  68.0031  68.4556
    68.8980  69.3499  71.1311  71.9765  74.5541  75.0134

     occupation numbers 
     1.0000   1.0000   1.0000   1.0000   0.0000   0.0000   0.0000   0.0000
     0.0000   0.0000   0.0000   0.0000   0.0000   0.0000   0.0000   0.0000
     0.0000   0.0000   0.0000   0.0000   0.0000   0.0000   0.0000   0.0000
     0.0000   0.0000   0.0000   0.0000   0.0000   0.0000   0.0000   0.0000
     0.0000   0.0000   0.0000   0.0000   0.0000   0.0000   0.0000   0.0000
     0.0000   0.0000   0.0000   0.0000   0.0000   0.0000   0.0000   0.0000
     0.0000   0.0000   0.0000   0.0000   0.0000   0.0000   0.0000   0.0000
     0.0000   0.0000   0.0000   0.0000   0.0000   0.0000   0.0000   0.0000
     0.0000   0.0000   0.0000   0.0000   0.0000   0.0000

          k =-0.7071 0.2828 0.0000 (  2946 PWs)   bands (ev):

    -5.3882  -1.7368   1.4250   1.6281   8.9062   9.0762  11.4575  11.7122
    15.9887  17.4137  18.3105  19.1085  22.1132  23.0879  23.1963  23.6841
    24.1917  25.0946  27.8731  28.4202  29.5790  30.0488  30.8685  30.9894
    33.2042  33.7839  34.1467  34.9978  39.0487  39.6682  40.4814  41.4611
    42.2932  42.7044  45.5674  46.1379  48.0562  49.0835  49.4501  49.4681
    51.7746  52.0302  52.9236  52.9338  53.5774  54.1721  54.3718  55.2174
    56.9287  58.8549  58.8769  60.4944  61.1492  61.3691  61.8886  62.5740
    63.5364  65.5724  65.7653  66.3924  66.7907  66.8676  67.7160  68.8032
    68.8504  69.8883  71.1055  71.1298  73.6504  74.2236

     occupation numbers 
     1.0000   1.0000   1.0000   1.0000   0.0000   0.0000   0.0000   0.0000
     0.0000   0.0000   0.0000   0.0000   0.0000   0.0000   0.0000   0.0000
     0.0000   0.0000   0.0000   0.0000   0.0000   0.0000   0.0000   0.0000
     0.0000   0.0000   0.0000   0.0000   0.0000   0.0000   0.0000   0.0000
     0.0000   0.0000   0.0000   0.0000   0.0000   0.0000   0.0000   0.0000
     0.0000   0.0000   0.0000   0.0000   0.0000   0.0000   0.0000   0.0000
     0.0000   0.0000   0.0000   0.0000   0.0000   0.0000   0.0000   0.0000
     0.0000   0.0000   0.0000   0.0000   0.0000   0.0000   0.0000   0.0000
     0.0000   0.0000   0.0000   0.0000   0.0000   0.0000

          k =-0.0707-0.3889 0.7071 (  2953 PWs)   bands (ev):

    -5.4473  -1.6621   1.2414   1.8500   9.2785   9.5824  10.3874  11.9376
    15.4196  17.1688  18.4310  19.5488  21.3423  22.3205  23.6319  24.0910
    25.0123  26.1437  27.0452  27.8375  29.6753  30.4754  30.9863  32.4731
    33.0488  33.3485  33.9775  34.2825  37.5439  39.9662  40.8446  41.9038
    42.4084  42.9205  45.6652  47.0344  47.8004  48.7313  49.7230  50.3383
    50.4395  50.9349  51.6683  52.4154  54.2985  54.6203  55.9524  56.4488
    57.1888  57.9418  58.7291  59.5178  60.7109  61.2784  62.3229  63.3065
    64.0570  65.0037  65.2283  65.5269  65.7006  66.8742  67.3311  69.0111
    69.6999  70.8267  71.2956  72.2182  73.4691  74.0634

     occupation numbers 
     1.0000   1.0000   1.0000   1.0000   0.0000   0.0000   0.0000   0.0000
     0.0000   0.0000   0.0000   0.0000   0.0000   0.0000   0.0000   0.0000
     0.0000   0.0000   0.0000   0.0000   0.0000   0.0000   0.0000   0.0000
     0.0000   0.0000   0.0000   0.0000   0.0000   0.0000   0.0000   0.0000
     0.0000   0.0000   0.0000   0.0000   0.0000   0.0000   0.0000   0.0000
     0.0000   0.0000   0.0000   0.0000   0.0000   0.0000   0.0000   0.0000
     0.0000   0.0000   0.0000   0.0000   0.0000   0.0000   0.0000   0.0000
     0.0000   0.0000   0.0000   0.0000   0.0000   0.0000   0.0000   0.0000
     0.0000   0.0000   0.0000   0.0000   0.0000   0.0000

          k =-0.0530-0.3712 0.6894 (  2953 PWs)   bands (ev):

    -5.4193  -1.6850   1.2386   1.7756   9.3588   9.7692  10.4616  11.5164
    15.5896  17.3249  18.2794  19.4836  21.5320  22.5616  23.6027  24.0430
    24.6820  26.1864  26.8161  28.3016  29.5652  30.6766  31.1782  32.4124
    32.7706  33.1123  33.6521  34.0446  38.1637  39.6511  40.8915  41.9218
    42.2159  43.2641  45.2147  47.1651  47.8612  49.1581  49.8408  50.1803
    50.9139  51.2500  51.7620  52.5202  53.4116  54.1387  55.5463  56.7206
    57.5549  58.1318  59.0468  59.8078  60.4778  61.5149  61.7387  62.9943
    63.8316  64.9323  65.4738  65.5761  66.3813  66.7521  67.5284  68.5829
    69.5296  70.0517  71.4571  71.9917  74.2598  74.7670

     occupation numbers 
     1.0000   1.0000   1.0000   1.0000   0.0000   0.0000   0.0000   0.0000
     0.0000   0.0000   0.0000   0.0000   0.0000   0.0000   0.0000   0.0000
     0.0000   0.0000   0.0000   0.0000   0.0000   0.0000   0.0000   0.0000
     0.0000   0.0000   0.0000   0.0000   0.0000   0.0000   0.0000   0.0000
     0.0000   0.0000   0.0000   0.0000   0.0000   0.0000   0.0000   0.0000
     0.0000   0.0000   0.0000   0.0000   0.0000   0.0000   0.0000   0.0000
     0.0000   0.0000   0.0000   0.0000   0.0000   0.0000   0.0000   0.0000
     0.0000   0.0000   0.0000   0.0000   0.0000   0.0000   0.0000   0.0000
     0.0000   0.0000   0.0000   0.0000   0.0000   0.0000

          k =-0.0354-0.3536 0.6718 (  2958 PWs)   bands (ev):

    -5.4098  -1.6927   1.2392   1.7492   9.3746   9.8429  10.5559  11.3054
    15.6464  17.4146  18.1880  19.4602  21.5941  22.7886  23.3226  24.2481
    24.4905  26.2078  26.7185  28.5413  29.4370  30.6003  31.7754  32.0165
    32.5768  33.1023  33.5653  33.9712  38.5613  39.3035  41.0114  41.8043
    42.1886  43.4975  44.9735  47.1968  47.8875  49.4064  49.8749  50.0981
    50.8951  51.3812  52.1383  52.6049  53.0160  53.7576  55.3992  56.8443
    57.8717  57.9059  59.4555  59.9134  60.3861  60.9284  62.1232  62.9844
    63.4846  64.9100  65.5021  65.5988  66.3953  67.3578  67.7201  68.3304
    68.9148  69.9745  71.3185  72.1851  74.6221  74.9983

     occupation numbers 
     1.0000   1.0000   1.0000   1.0000   0.0000   0.0000   0.0000   0.0000
     0.0000   0.0000   0.0000   0.0000   0.0000   0.0000   0.0000   0.0000
     0.0000   0.0000   0.0000   0.0000   0.0000   0.0000   0.0000   0.0000
     0.0000   0.0000   0.0000   0.0000   0.0000   0.0000   0.0000   0.0000
     0.0000   0.0000   0.0000   0.0000   0.0000   0.0000   0.0000   0.0000
     0.0000   0.0000   0.0000   0.0000   0.0000   0.0000   0.0000   0.0000
     0.0000   0.0000   0.0000   0.0000   0.0000   0.0000   0.0000   0.0000
     0.0000   0.0000   0.0000   0.0000   0.0000   0.0000   0.0000   0.0000
     0.0000   0.0000   0.0000   0.0000   0.0000   0.0000

          k =-0.0354-0.3889 0.7071 (  2955 PWs)   bands (ev):

    -5.4007  -1.7050   1.3140   1.6739   9.3508   9.5248  10.6789  11.5197
    15.8244  17.4002  18.2691  19.2910  21.7836  22.7500  23.4988  23.8335
    24.4734  25.8221  27.1531  28.3741  29.7174  30.4124  31.0135  32.3613
    32.7569  33.2089  33.6189  34.1150  38.5704  39.9492  40.6800  41.5758
    42.4906  42.8734  45.1498  46.9671  48.3429  48.8604  50.1032  50.2982
    50.8564  51.3847  51.7670  52.7934  53.2519  54.1483  54.9728  56.3332
    57.7929  58.3147  58.9521  60.0308  60.5090  61.6189  61.8139  62.6156
    63.9527  65.0997  65.6070  66.1572  66.4922  67.1647  67.3635  68.3227
    68.9232  69.7161  71.1568  71.8639  74.4926  75.1021

     occupation numbers 
     1.0000   1.0000   1.0000   1.0000   0.0000   0.0000   0.0000   0.0000
     0.0000   0.0000   0.0000   0.0000   0.0000   0.0000   0.0000   0.0000
     0.0000   0.0000   0.0000   0.0000   0.0000   0.0000   0.0000   0.0000
     0.0000   0.0000   0.0000   0.0000   0.0000   0.0000   0.0000   0.0000
     0.0000   0.0000   0.0000   0.0000   0.0000   0.0000   0.0000   0.0000
     0.0000   0.0000   0.0000   0.0000   0.0000   0.0000   0.0000   0.0000
     0.0000   0.0000   0.0000   0.0000   0.0000   0.0000   0.0000   0.0000
     0.0000   0.0000   0.0000   0.0000   0.0000   0.0000   0.0000   0.0000
     0.0000   0.0000   0.0000   0.0000   0.0000   0.0000

          k =-0.0177-0.3712 0.6894 (  2960 PWs)   bands (ev):

    -5.3905  -1.7095   1.3109   1.6338   9.4455   9.7509  10.6538  11.1776
    15.9053  17.4125  18.2593  19.2470  21.8849  22.9038  23.2872  23.9051
    24.4083  25.9915  26.8818  28.6213  29.6910  30.2814  31.6909  32.4299
    32.5996  32.8155  33.3720  33.8335  39.0512  39.7307  40.5414  41.4900
    42.5110  43.2126  44.7834  47.2096  48.3124  49.1413  49.9990  50.7766
    51.1475  51.3497  51.6020  52.2769  53.3063  53.7680  54.7035  56.7936
    58.0334  58.3306  59.2532  59.9358  60.4392  60.9804  62.1338  62.6045
    63.8357  64.7621  65.6342  66.3702  66.8789  67.3046  67.6300  68.0492
    68.7563  68.9971  70.8337  72.3134  74.9453  75.4898

     occupation numbers 
     1.0000   1.0000   1.0000   1.0000   0.0000   0.0000   0.0000   0.0000
     0.0000   0.0000   0.0000   0.0000   0.0000   0.0000   0.0000   0.0000
     0.0000   0.0000   0.0000   0.0000   0.0000   0.0000   0.0000   0.0000
     0.0000   0.0000   0.0000   0.0000   0.0000   0.0000   0.0000   0.0000
     0.0000   0.0000   0.0000   0.0000   0.0000   0.0000   0.0000   0.0000
     0.0000   0.0000   0.0000   0.0000   0.0000   0.0000   0.0000   0.0000
     0.0000   0.0000   0.0000   0.0000   0.0000   0.0000   0.0000   0.0000
     0.0000   0.0000   0.0000   0.0000   0.0000   0.0000   0.0000   0.0000
     0.0000   0.0000   0.0000   0.0000   0.0000   0.0000

          k = 0.0000-0.3536 0.6718 (  2959 PWs)   bands (ev):

    -5.3969  -1.7025   1.2772   1.6762   9.4542   9.8467  10.5484  11.1892
    15.8214  17.3781  18.2693  19.3260  21.7886  22.7131  23.4836  23.9824
    24.4402  26.1667  26.7201  28.5876  29.6049  30.4201  31.8239  32.3177
    32.5668  32.9058  33.3462  33.8056  38.7776  39.8174  40.5082  41.7041
    42.3785  43.3406  44.8045  47.2971  48.1121  49.2756  49.9120  50.7451
    51.1038  51.3724  51.5139  52.3956  53.0001  53.9049  54.9711  57.0124
    57.9462  58.1150  59.3263  59.9463  60.2488  61.0657  62.1712  62.6454
    63.8517  64.6946  65.6280  66.4771  66.6042  66.6243  67.6366  68.6694
    68.9062  69.0927  70.9634  72.3259  74.8696  75.2561

     occupation numbers 
     1.0000   1.0000   1.0000   1.0000   0.0000   0.0000   0.0000   0.0000
     0.0000   0.0000   0.0000   0.0000   0.0000   0.0000   0.0000   0.0000
     0.0000   0.0000   0.0000   0.0000   0.0000   0.0000   0.0000   0.0000
     0.0000   0.0000   0.0000   0.0000   0.0000   0.0000   0.0000   0.0000
     0.0000   0.0000   0.0000   0.0000   0.0000   0.0000   0.0000   0.0000
     0.0000   0.0000   0.0000   0.0000   0.0000   0.0000   0.0000   0.0000
     0.0000   0.0000   0.0000   0.0000   0.0000   0.0000   0.0000   0.0000
     0.0000   0.0000   0.0000   0.0000   0.0000   0.0000   0.0000   0.0000
     0.0000   0.0000   0.0000   0.0000   0.0000   0.0000

          k =-0.7071 0.3182 0.0000 (  2958 PWs)   bands (ev):

    -5.3848  -1.7195   1.3666   1.5865   9.3807   9.4967  10.9175  11.2417
    15.9989  17.4092  18.3000  19.1406  22.0310  23.0338  23.2467  23.6777
    24.3715  25.6798  27.1928  28.6109  29.8725  30.0313  31.4458  31.8608
    32.9446  33.2032  33.3607  34.0667  39.2773  39.8317  40.3641  41.3403
    42.7578  42.8006  44.9298  46.9415  48.7074  48.7638  50.0622  50.2702
    51.3498  51.5543  52.1208  52.1537  53.5879  53.9668  54.1725  56.2971
    58.0350  58.5547  59.0257  60.1171  60.6278  61.0739  62.2574  62.4731
    63.5139  65.0544  65.7652  66.7892  66.9077  67.1502  67.7853  68.1439
    68.1914  69.1534  70.7259  72.0885  74.9866  75.1610

     occupation numbers 
     1.0000   1.0000   1.0000   1.0000   0.0000   0.0000   0.0000   0.0000
     0.0000   0.0000   0.0000   0.0000   0.0000   0.0000   0.0000   0.0000
     0.0000   0.0000   0.0000   0.0000   0.0000   0.0000   0.0000   0.0000
     0.0000   0.0000   0.0000   0.0000   0.0000   0.0000   0.0000   0.0000
     0.0000   0.0000   0.0000   0.0000   0.0000   0.0000   0.0000   0.0000
     0.0000   0.0000   0.0000   0.0000   0.0000   0.0000   0.0000   0.0000
     0.0000   0.0000   0.0000   0.0000   0.0000   0.0000   0.0000   0.0000
     0.0000   0.0000   0.0000   0.0000   0.0000   0.0000   0.0000   0.0000
     0.0000   0.0000   0.0000   0.0000   0.0000   0.0000

          k =-0.7071 0.3536 0.0000 (  2936 PWs)   bands (ev):

    -5.3836  -1.7134   1.3466   1.5724   9.6472   9.7037  10.6290  11.0179
    16.0024  17.4080  18.2965  19.1520  22.0007  23.0154  23.2554  23.6703
    24.4495  26.1043  26.7417  28.6757  29.9730  29.9843  32.1483  32.4279
    32.5834  32.8519  32.9062  33.6240  39.3678  39.8932  40.3004  41.2910
    42.7778  43.0975  44.5938  47.4308  48.3259  49.1031  50.5117  51.0247
    51.0450  51.2409  51.5909  51.6241  53.6855  53.7645  54.1699  57.1023
    58.0053  58.3990  59.5947  59.8747  60.4662  60.5729  61.8705  62.8036
    64.0109  64.7076  65.3833  67.1583  67.3032  67.5163  67.5357  67.6646
    68.0130  68.7795  70.5626  72.5334  75.1395  75.7070

     occupation numbers 
     1.0000   1.0000   1.0000   1.0000   0.0000   0.0000   0.0000   0.0000
     0.0000   0.0000   0.0000   0.0000   0.0000   0.0000   0.0000   0.0000
     0.0000   0.0000   0.0000   0.0000   0.0000   0.0000   0.0000   0.0000
     0.0000   0.0000   0.0000   0.0000   0.0000   0.0000   0.0000   0.0000
     0.0000   0.0000   0.0000   0.0000   0.0000   0.0000   0.0000   0.0000
     0.0000   0.0000   0.0000   0.0000   0.0000   0.0000   0.0000   0.0000
     0.0000   0.0000   0.0000   0.0000   0.0000   0.0000   0.0000   0.0000
     0.0000   0.0000   0.0000   0.0000   0.0000   0.0000   0.0000   0.0000
     0.0000   0.0000   0.0000   0.0000   0.0000   0.0000

     highest occupied, lowest unoccupied level (ev):     5.0027    5.8020

     Writing output data file run_output/GaAs.save/

     init_run     :      0.06s CPU      0.11s WALL (       1 calls)
     electrons    :    604.24s CPU    651.45s WALL (       1 calls)

     Called by init_run:
     wfcinit      :      0.00s CPU      0.01s WALL (       1 calls)
     wfcinit:atom :      0.05s CPU      0.06s WALL (    1661 calls)
     wfcinit:wfcr :     33.99s CPU     34.70s WALL (    1661 calls)
     potinit      :      0.00s CPU      0.01s WALL (       1 calls)
     hinit0       :      0.03s CPU      0.05s WALL (       1 calls)

     Called by electrons:
     c_bands      :    604.00s CPU    650.93s WALL (       1 calls)
     v_of_rho     :      0.00s CPU      0.00s WALL (       1 calls)
     v_h          :      0.00s CPU      0.00s WALL (       1 calls)
     v_xc         :      0.00s CPU      0.00s WALL (       1 calls)

     Called by c_bands:
     init_us_2    :      0.08s CPU      0.08s WALL (    1661 calls)
     cegterg      :    563.83s CPU    572.76s WALL (    1726 calls)

     Called by sum_band:

     Called by *egterg:
     cdiaghg      :    281.85s CPU    282.30s WALL (   30024 calls)
     cegterg:over :     47.12s CPU     50.67s WALL (   28363 calls)
     cegterg:upda :     21.87s CPU     21.79s WALL (   28363 calls)
     cegterg:last :     42.30s CPU     42.25s WALL (   13381 calls)
     h_psi        :    188.88s CPU    193.85s WALL (   31750 calls)
     g_psi        :      0.54s CPU      0.55s WALL (   28363 calls)

     Called by h_psi:
     h_psi:calbec :      4.57s CPU      4.66s WALL (   31750 calls)
     vloc_psi     :    181.62s CPU    186.44s WALL (   31750 calls)
     add_vuspsi   :      2.49s CPU      2.43s WALL (   31750 calls)

     General routines
     calbec       :      4.54s CPU      4.61s WALL (   31750 calls)
     fft          :      0.02s CPU      0.04s WALL (       4 calls)
     fftw         :    175.67s CPU    179.66s WALL ( 2152428 calls)
     davcio       :      0.11s CPU     37.45s WALL (    3322 calls)

     Parallel routines
     fft_scatt_xy :      8.63s CPU      9.38s WALL ( 2152432 calls)
     fft_scatt_yz :     89.45s CPU     89.47s WALL ( 2152432 calls)

     PWSCF        :  10m46.31s CPU  13m18.75s WALL


   This run was terminated on:  16: 2:28  29Apr2021            

=------------------------------------------------------------------------------=
   JOB DONE.
=------------------------------------------------------------------------------=
