
     Program PWSCF v.6.7MaX starts on  6May2021 at 19:21:49 

     This program is part of the open-source Quantum ESPRESSO suite
     for quantum simulation of materials; please cite
         "P. Giannozzi et al., J. Phys.:Condens. Matter 21 395502 (2009);
         "P. Giannozzi et al., J. Phys.:Condens. Matter 29 465901 (2017);
          URL http://www.quantum-espresso.org", 
     in publications or presentations arising from this work. More details at
     http://www.quantum-espresso.org/quote

     Parallel version (MPI), running on    84 processors

     MPI processes distributed on     3 nodes
     R & G space division:  proc/nbgrp/npool/nimage =      84
     Waiting for input...
     Reading input from standard input

     Current dimensions of program PWSCF are:
     Max number of different atomic species (ntypx) = 10
     Max number of k-points (npk) =  40000
     Max angular momentum in pseudopotentials (lmaxx) =  3

     Atomic positions and unit cell read from directory:
     run_output/MoS2.save/
     Atomic positions from file used, from input discarded


     Subspace diagonalization in iterative solution of the eigenvalue problem:
     a serial algorithm will be used


     Parallelization info
     --------------------
     sticks:   dense  smooth     PW     G-vecs:    dense   smooth      PW
     Min           6       6      1                  652      652      79
     Max           7       7      2                  693      693     122
     Sum         583     583    163                56613    56613    9123



     bravais-lattice index     =            4
     lattice parameter (alat)  =       5.8772  a.u.
     unit-cell volume          =     897.4163 (a.u.)^3
     number of atoms/cell      =            3
     number of atomic types    =            2
     number of electrons       =        26.00
     number of Kohn-Sham states=           50
     kinetic-energy cutoff     =      60.0000  Ry
     charge density cutoff     =     240.0000  Ry
     Exchange-correlation= SLA-PZ-NOGX-NOGC
                           (   1   1   0   0   0   0   0)

     celldm(1)=   5.877208  celldm(2)=   0.000000  celldm(3)=   5.104465
     celldm(4)=   0.000000  celldm(5)=   0.000000  celldm(6)=   0.000000

     crystal axes: (cart. coord. in units of alat)
               a(1) = (   1.000000   0.000000   0.000000 )  
               a(2) = (  -0.500000   0.866025   0.000000 )  
               a(3) = (   0.000000   0.000000   5.104465 )  

     reciprocal axes: (cart. coord. in units 2 pi/alat)
               b(1) = (  1.000000  0.577350 -0.000000 )  
               b(2) = (  0.000000  1.154701  0.000000 )  
               b(3) = (  0.000000 -0.000000  0.195907 )  


     PseudoPot. # 1 for Mo read from file:
     PPs/Mo_SR_withPS_PZ.UPF
     MD5 check sum: 19bf02b7f08077cf8574869525df176e
     Pseudo is Norm-conserving + core correction, Zval = 14.0
     Generated using "atomic" code by A. Dal Corso  (Quantum ESPRESSO distribution)
     Using radial grid of 1229 points,  5 beta functions with: 
                l(1) =   0
                l(2) =   0
                l(3) =   1
                l(4) =   2
                l(5) =   2

     PseudoPot. # 2 for S  read from file:
     PPs/S.pz-hgh.UPF
     MD5 check sum: fb24c143a2a3ea3aba309d3cb9e9e6ec
     Pseudo is Norm-conserving, Zval =  6.0
     Generated in analytical, separable form
     Using radial grid of 1151 points,  3 beta functions with: 
                l(1) =   0
                l(2) =   0
                l(3) =   1

     atomic species   valence    mass     pseudopotential
        Mo            14.00    95.94000     Mo( 1.00)
        S              6.00    32.06500     S ( 1.00)

     Starting magnetic structure 
     atomic species   magnetization
        Mo          -0.100
        S            0.100

     12 Sym. Ops. (no inversion) found


                                    s                        frac. trans.

      isym =  1     identity                                     

 cryst.   s( 1) = (     1          0          0      )
                  (     0          1          0      )
                  (     0          0          1      )

 cart.    s( 1) = (  1.0000000  0.0000000  0.0000000 )
                  (  0.0000000  1.0000000  0.0000000 )
                  (  0.0000000  0.0000000  1.0000000 )


      isym =  2     180 deg rotation - cart. axis [0,1,0]        

 cryst.   s( 2) = (    -1          0          0      )
                  (     1          1          0      )
                  (     0          0         -1      )

 cart.    s( 2) = ( -1.0000000  0.0000000  0.0000000 )
                  (  0.0000000  1.0000000  0.0000000 )
                  (  0.0000000  0.0000000 -1.0000000 )


      isym =  3     120 deg rotation - cryst. axis [0,0,1]       

 cryst.   s( 3) = (     0          1          0      )
                  (    -1         -1          0      )
                  (     0          0          1      )

 cart.    s( 3) = ( -0.5000000 -0.8660254  0.0000000 )
                  (  0.8660254 -0.5000000  0.0000000 )
                  (  0.0000000  0.0000000  1.0000000 )


      isym =  4     120 deg rotation - cryst. axis [0,0,-1]      

 cryst.   s( 4) = (    -1         -1          0      )
                  (     1          0          0      )
                  (     0          0          1      )

 cart.    s( 4) = ( -0.5000000  0.8660254  0.0000000 )
                  ( -0.8660254 -0.5000000  0.0000000 )
                  (  0.0000000  0.0000000  1.0000000 )


      isym =  5     180 deg rotation - cryst. axis [1,-1,0]      

 cryst.   s( 5) = (     0         -1          0      )
                  (    -1          0          0      )
                  (     0          0         -1      )

 cart.    s( 5) = (  0.5000000 -0.8660254  0.0000000 )
                  ( -0.8660254 -0.5000000  0.0000000 )
                  (  0.0000000  0.0000000 -1.0000000 )


      isym =  6     180 deg rotation - cryst. axis [2,1,0]       

 cryst.   s( 6) = (     1          1          0      )
                  (     0         -1          0      )
                  (     0          0         -1      )

 cart.    s( 6) = (  0.5000000  0.8660254  0.0000000 )
                  (  0.8660254 -0.5000000  0.0000000 )
                  (  0.0000000  0.0000000 -1.0000000 )


      isym =  7     inv. 180 deg rotation - cart. axis [0,0,1]   

 cryst.   s( 7) = (     1          0          0      )
                  (     0          1          0      )
                  (     0          0         -1      )

 cart.    s( 7) = (  1.0000000  0.0000000  0.0000000 )
                  (  0.0000000  1.0000000  0.0000000 )
                  (  0.0000000  0.0000000 -1.0000000 )


      isym =  8     inv. 180 deg rotation - cart. axis [1,0,0]   

 cryst.   s( 8) = (    -1          0          0      )
                  (     1          1          0      )
                  (     0          0          1      )

 cart.    s( 8) = ( -1.0000000  0.0000000  0.0000000 )
                  (  0.0000000  1.0000000  0.0000000 )
                  (  0.0000000  0.0000000  1.0000000 )


      isym =  9     inv.  60 deg rotation - cryst. axis [0,0,1]  

 cryst.   s( 9) = (    -1         -1          0      )
                  (     1          0          0      )
                  (     0          0         -1      )

 cart.    s( 9) = ( -0.5000000  0.8660254  0.0000000 )
                  ( -0.8660254 -0.5000000  0.0000000 )
                  (  0.0000000  0.0000000 -1.0000000 )


      isym = 10     inv.  60 deg rotation - cryst. axis [0,0,-1] 

 cryst.   s(10) = (     0          1          0      )
                  (    -1         -1          0      )
                  (     0          0         -1      )

 cart.    s(10) = ( -0.5000000 -0.8660254  0.0000000 )
                  (  0.8660254 -0.5000000  0.0000000 )
                  (  0.0000000  0.0000000 -1.0000000 )


      isym = 11     inv. 180 deg rotation - cryst. axis [0,1,0]  

 cryst.   s(11) = (     1          1          0      )
                  (     0         -1          0      )
                  (     0          0          1      )

 cart.    s(11) = (  0.5000000  0.8660254  0.0000000 )
                  (  0.8660254 -0.5000000  0.0000000 )
                  (  0.0000000  0.0000000  1.0000000 )


      isym = 12     inv. 180 deg rotation - cryst. axis [1,1,0]  

 cryst.   s(12) = (     0         -1          0      )
                  (    -1          0          0      )
                  (     0          0          1      )

 cart.    s(12) = (  0.5000000 -0.8660254  0.0000000 )
                  ( -0.8660254 -0.5000000  0.0000000 )
                  (  0.0000000  0.0000000  1.0000000 )


     point group D_3h (-62m)
     there are  6 classes
     the character table:

       E     2C3   3C2   s_h   2S3   3s_v 
A'_1   1.00  1.00  1.00  1.00  1.00  1.00
A'_2   1.00  1.00 -1.00  1.00  1.00 -1.00
E'     2.00 -1.00  0.00  2.00 -1.00  0.00
A''1   1.00  1.00  1.00 -1.00 -1.00 -1.00
A''2   1.00  1.00 -1.00 -1.00 -1.00  1.00
E''    2.00 -1.00  0.00 -2.00  1.00  0.00

     the symmetry operations in each class and the name of the first element:

     E        1
          identity                                               
     2C3      3    4
          120 deg rotation - cryst. axis [0,0,1]                 
     3C2      2    6    5
          180 deg rotation - cart. axis [0,1,0]                  
     s_h      7
          inv. 180 deg rotation - cart. axis [0,0,1]             
     2S3      9   10
          inv.  60 deg rotation - cryst. axis [0,0,1]            
     3s_v     8   11   12
          inv. 180 deg rotation - cart. axis [1,0,0]             

   Cartesian axes

     site n.     atom                  positions (alat units)
         1           Mo  tau(   1) = (  -0.0000000   0.5773503   0.0000000  )
         2           S   tau(   2) = (   0.5000000   0.2886751   0.4991315  )
         3           S   tau(   3) = (   0.5000000   0.2886751  -0.4991315  )

   Crystallographic axes

     site n.     atom                  positions (cryst. coord.)
         1           Mo  tau(   1) = (  0.3333333  0.6666667  0.0000000  )
         2           S   tau(   2) = (  0.6666667  0.3333333  0.0977833  )
         3           S   tau(   3) = (  0.6666667  0.3333333 -0.0977833  )

     number of k points=   217  Gaussian smearing, width (Ry)=  0.0017
                       cart. coord. in units 2pi/alat
        k(    1) = (   0.0000000   0.0000000   0.0000000), wk =   0.0004340
        k(    2) = (   0.0000000   0.0240563   0.0000000), wk =   0.0026042
        k(    3) = (   0.0000000   0.0481125   0.0000000), wk =   0.0026042
        k(    4) = (   0.0000000   0.0721688   0.0000000), wk =   0.0026042
        k(    5) = (   0.0000000   0.0962250   0.0000000), wk =   0.0026042
        k(    6) = (   0.0000000   0.1202813   0.0000000), wk =   0.0026042
        k(    7) = (   0.0000000   0.1443376   0.0000000), wk =   0.0026042
        k(    8) = (   0.0000000   0.1683938   0.0000000), wk =   0.0026042
        k(    9) = (   0.0000000   0.1924501   0.0000000), wk =   0.0026042
        k(   10) = (   0.0000000   0.2165064   0.0000000), wk =   0.0026042
        k(   11) = (   0.0000000   0.2405626   0.0000000), wk =   0.0026042
        k(   12) = (   0.0000000   0.2646189   0.0000000), wk =   0.0026042
        k(   13) = (   0.0000000   0.2886751   0.0000000), wk =   0.0026042
        k(   14) = (   0.0000000   0.3127314   0.0000000), wk =   0.0026042
        k(   15) = (   0.0000000   0.3367877   0.0000000), wk =   0.0026042
        k(   16) = (   0.0000000   0.3608439   0.0000000), wk =   0.0026042
        k(   17) = (   0.0000000   0.3849002   0.0000000), wk =   0.0026042
        k(   18) = (   0.0000000   0.4089564   0.0000000), wk =   0.0026042
        k(   19) = (   0.0000000   0.4330127   0.0000000), wk =   0.0026042
        k(   20) = (   0.0000000   0.4570690   0.0000000), wk =   0.0026042
        k(   21) = (   0.0000000   0.4811252   0.0000000), wk =   0.0026042
        k(   22) = (   0.0000000   0.5051815   0.0000000), wk =   0.0026042
        k(   23) = (   0.0000000   0.5292377   0.0000000), wk =   0.0026042
        k(   24) = (   0.0000000   0.5532940   0.0000000), wk =   0.0026042
        k(   25) = (   0.0000000  -0.5773503   0.0000000), wk =   0.0013021
        k(   26) = (   0.0208333   0.0360844   0.0000000), wk =   0.0026042
        k(   27) = (   0.0208333   0.0601407   0.0000000), wk =   0.0052083
        k(   28) = (   0.0208333   0.0841969   0.0000000), wk =   0.0052083
        k(   29) = (   0.0208333   0.1082532   0.0000000), wk =   0.0052083
        k(   30) = (   0.0208333   0.1323094   0.0000000), wk =   0.0052083
        k(   31) = (   0.0208333   0.1563657   0.0000000), wk =   0.0052083
        k(   32) = (   0.0208333   0.1804220   0.0000000), wk =   0.0052083
        k(   33) = (   0.0208333   0.2044782   0.0000000), wk =   0.0052083
        k(   34) = (   0.0208333   0.2285345   0.0000000), wk =   0.0052083
        k(   35) = (   0.0208333   0.2525907   0.0000000), wk =   0.0052083
        k(   36) = (   0.0208333   0.2766470   0.0000000), wk =   0.0052083
        k(   37) = (   0.0208333   0.3007033   0.0000000), wk =   0.0052083
        k(   38) = (   0.0208333   0.3247595   0.0000000), wk =   0.0052083
        k(   39) = (   0.0208333   0.3488158   0.0000000), wk =   0.0052083
        k(   40) = (   0.0208333   0.3728720   0.0000000), wk =   0.0052083
        k(   41) = (   0.0208333   0.3969283   0.0000000), wk =   0.0052083
        k(   42) = (   0.0208333   0.4209846   0.0000000), wk =   0.0052083
        k(   43) = (   0.0208333   0.4450408   0.0000000), wk =   0.0052083
        k(   44) = (   0.0208333   0.4690971   0.0000000), wk =   0.0052083
        k(   45) = (   0.0208333   0.4931534   0.0000000), wk =   0.0052083
        k(   46) = (   0.0208333   0.5172096   0.0000000), wk =   0.0052083
        k(   47) = (   0.0208333   0.5412659   0.0000000), wk =   0.0052083
        k(   48) = (   0.0208333   0.5653221   0.0000000), wk =   0.0052083
        k(   49) = (   0.0416667   0.0721688   0.0000000), wk =   0.0026042
        k(   50) = (   0.0416667   0.0962250   0.0000000), wk =   0.0052083
        k(   51) = (   0.0416667   0.1202813   0.0000000), wk =   0.0052083
        k(   52) = (   0.0416667   0.1443376   0.0000000), wk =   0.0052083
        k(   53) = (   0.0416667   0.1683938   0.0000000), wk =   0.0052083
        k(   54) = (   0.0416667   0.1924501   0.0000000), wk =   0.0052083
        k(   55) = (   0.0416667   0.2165064   0.0000000), wk =   0.0052083
        k(   56) = (   0.0416667   0.2405626   0.0000000), wk =   0.0052083
        k(   57) = (   0.0416667   0.2646189   0.0000000), wk =   0.0052083
        k(   58) = (   0.0416667   0.2886751   0.0000000), wk =   0.0052083
        k(   59) = (   0.0416667   0.3127314   0.0000000), wk =   0.0052083
        k(   60) = (   0.0416667   0.3367877   0.0000000), wk =   0.0052083
        k(   61) = (   0.0416667   0.3608439   0.0000000), wk =   0.0052083
        k(   62) = (   0.0416667   0.3849002   0.0000000), wk =   0.0052083
        k(   63) = (   0.0416667   0.4089564   0.0000000), wk =   0.0052083
        k(   64) = (   0.0416667   0.4330127   0.0000000), wk =   0.0052083
        k(   65) = (   0.0416667   0.4570690   0.0000000), wk =   0.0052083
        k(   66) = (   0.0416667   0.4811252   0.0000000), wk =   0.0052083
        k(   67) = (   0.0416667   0.5051815   0.0000000), wk =   0.0052083
        k(   68) = (   0.0416667   0.5292377   0.0000000), wk =   0.0052083
        k(   69) = (   0.0416667   0.5532940   0.0000000), wk =   0.0052083
        k(   70) = (   0.0416667   0.5773503   0.0000000), wk =   0.0026042
        k(   71) = (   0.0625000   0.1082532   0.0000000), wk =   0.0026042
        k(   72) = (   0.0625000   0.1323094   0.0000000), wk =   0.0052083
        k(   73) = (   0.0625000   0.1563657   0.0000000), wk =   0.0052083
        k(   74) = (   0.0625000   0.1804220   0.0000000), wk =   0.0052083
        k(   75) = (   0.0625000   0.2044782   0.0000000), wk =   0.0052083
        k(   76) = (   0.0625000   0.2285345   0.0000000), wk =   0.0052083
        k(   77) = (   0.0625000   0.2525907   0.0000000), wk =   0.0052083
        k(   78) = (   0.0625000   0.2766470   0.0000000), wk =   0.0052083
        k(   79) = (   0.0625000   0.3007033   0.0000000), wk =   0.0052083
        k(   80) = (   0.0625000   0.3247595   0.0000000), wk =   0.0052083
        k(   81) = (   0.0625000   0.3488158   0.0000000), wk =   0.0052083
        k(   82) = (   0.0625000   0.3728720   0.0000000), wk =   0.0052083
        k(   83) = (   0.0625000   0.3969283   0.0000000), wk =   0.0052083
        k(   84) = (   0.0625000   0.4209846   0.0000000), wk =   0.0052083
        k(   85) = (   0.0625000   0.4450408   0.0000000), wk =   0.0052083
        k(   86) = (   0.0625000   0.4690971   0.0000000), wk =   0.0052083
        k(   87) = (   0.0625000   0.4931534   0.0000000), wk =   0.0052083
        k(   88) = (   0.0625000   0.5172096   0.0000000), wk =   0.0052083
        k(   89) = (   0.0625000   0.5412659   0.0000000), wk =   0.0052083
        k(   90) = (   0.0625000   0.5653221   0.0000000), wk =   0.0052083
        k(   91) = (   0.0833333   0.1443376   0.0000000), wk =   0.0026042
        k(   92) = (   0.0833333   0.1683938   0.0000000), wk =   0.0052083
        k(   93) = (   0.0833333   0.1924501   0.0000000), wk =   0.0052083
        k(   94) = (   0.0833333   0.2165064   0.0000000), wk =   0.0052083
        k(   95) = (   0.0833333   0.2405626   0.0000000), wk =   0.0052083
        k(   96) = (   0.0833333   0.2646189   0.0000000), wk =   0.0052083
        k(   97) = (   0.0833333   0.2886751   0.0000000), wk =   0.0052083
        k(   98) = (   0.0833333   0.3127314   0.0000000), wk =   0.0052083
        k(   99) = (   0.0833333   0.3367877   0.0000000), wk =   0.0052083
        k(  100) = (   0.0833333   0.3608439   0.0000000), wk =   0.0052083
        k(  101) = (   0.0833333   0.3849002   0.0000000), wk =   0.0052083
        k(  102) = (   0.0833333   0.4089564   0.0000000), wk =   0.0052083
        k(  103) = (   0.0833333   0.4330127   0.0000000), wk =   0.0052083
        k(  104) = (   0.0833333   0.4570690   0.0000000), wk =   0.0052083
        k(  105) = (   0.0833333   0.4811252   0.0000000), wk =   0.0052083
        k(  106) = (   0.0833333   0.5051815   0.0000000), wk =   0.0052083
        k(  107) = (   0.0833333   0.5292377   0.0000000), wk =   0.0052083
        k(  108) = (   0.0833333   0.5532940   0.0000000), wk =   0.0052083
        k(  109) = (   0.0833333   0.5773503   0.0000000), wk =   0.0026042
        k(  110) = (   0.1041667   0.1804220   0.0000000), wk =   0.0026042
        k(  111) = (   0.1041667   0.2044782   0.0000000), wk =   0.0052083
        k(  112) = (   0.1041667   0.2285345   0.0000000), wk =   0.0052083
        k(  113) = (   0.1041667   0.2525907   0.0000000), wk =   0.0052083
        k(  114) = (   0.1041667   0.2766470   0.0000000), wk =   0.0052083
        k(  115) = (   0.1041667   0.3007033   0.0000000), wk =   0.0052083
        k(  116) = (   0.1041667   0.3247595   0.0000000), wk =   0.0052083
        k(  117) = (   0.1041667   0.3488158   0.0000000), wk =   0.0052083
        k(  118) = (   0.1041667   0.3728720   0.0000000), wk =   0.0052083
        k(  119) = (   0.1041667   0.3969283   0.0000000), wk =   0.0052083
        k(  120) = (   0.1041667   0.4209846   0.0000000), wk =   0.0052083
        k(  121) = (   0.1041667   0.4450408   0.0000000), wk =   0.0052083
        k(  122) = (   0.1041667   0.4690971   0.0000000), wk =   0.0052083
        k(  123) = (   0.1041667   0.4931534   0.0000000), wk =   0.0052083
        k(  124) = (   0.1041667   0.5172096   0.0000000), wk =   0.0052083
        k(  125) = (   0.1041667   0.5412659   0.0000000), wk =   0.0052083
        k(  126) = (   0.1041667   0.5653221   0.0000000), wk =   0.0052083
        k(  127) = (   0.1250000   0.2165064   0.0000000), wk =   0.0026042
        k(  128) = (   0.1250000   0.2405626   0.0000000), wk =   0.0052083
        k(  129) = (   0.1250000   0.2646189   0.0000000), wk =   0.0052083
        k(  130) = (   0.1250000   0.2886751   0.0000000), wk =   0.0052083
        k(  131) = (   0.1250000   0.3127314   0.0000000), wk =   0.0052083
        k(  132) = (   0.1250000   0.3367877   0.0000000), wk =   0.0052083
        k(  133) = (   0.1250000   0.3608439   0.0000000), wk =   0.0052083
        k(  134) = (   0.1250000   0.3849002   0.0000000), wk =   0.0052083
        k(  135) = (   0.1250000   0.4089564   0.0000000), wk =   0.0052083
        k(  136) = (   0.1250000   0.4330127   0.0000000), wk =   0.0052083
        k(  137) = (   0.1250000   0.4570690   0.0000000), wk =   0.0052083
        k(  138) = (   0.1250000   0.4811252   0.0000000), wk =   0.0052083
        k(  139) = (   0.1250000   0.5051815   0.0000000), wk =   0.0052083
        k(  140) = (   0.1250000   0.5292377   0.0000000), wk =   0.0052083
        k(  141) = (   0.1250000   0.5532940   0.0000000), wk =   0.0052083
        k(  142) = (   0.1250000   0.5773503   0.0000000), wk =   0.0026042
        k(  143) = (   0.1458333   0.2525907   0.0000000), wk =   0.0026042
        k(  144) = (   0.1458333   0.2766470   0.0000000), wk =   0.0052083
        k(  145) = (   0.1458333   0.3007033   0.0000000), wk =   0.0052083
        k(  146) = (   0.1458333   0.3247595   0.0000000), wk =   0.0052083
        k(  147) = (   0.1458333   0.3488158   0.0000000), wk =   0.0052083
        k(  148) = (   0.1458333   0.3728720   0.0000000), wk =   0.0052083
        k(  149) = (   0.1458333   0.3969283   0.0000000), wk =   0.0052083
        k(  150) = (   0.1458333   0.4209846   0.0000000), wk =   0.0052083
        k(  151) = (   0.1458333   0.4450408   0.0000000), wk =   0.0052083
        k(  152) = (   0.1458333   0.4690971   0.0000000), wk =   0.0052083
        k(  153) = (   0.1458333   0.4931534   0.0000000), wk =   0.0052083
        k(  154) = (   0.1458333   0.5172096   0.0000000), wk =   0.0052083
        k(  155) = (   0.1458333   0.5412659   0.0000000), wk =   0.0052083
        k(  156) = (   0.1458333   0.5653221   0.0000000), wk =   0.0052083
        k(  157) = (   0.1666667   0.2886751   0.0000000), wk =   0.0026042
        k(  158) = (   0.1666667   0.3127314   0.0000000), wk =   0.0052083
        k(  159) = (   0.1666667   0.3367877   0.0000000), wk =   0.0052083
        k(  160) = (   0.1666667   0.3608439   0.0000000), wk =   0.0052083
        k(  161) = (   0.1666667   0.3849002   0.0000000), wk =   0.0052083
        k(  162) = (   0.1666667   0.4089564   0.0000000), wk =   0.0052083
        k(  163) = (   0.1666667   0.4330127   0.0000000), wk =   0.0052083
        k(  164) = (   0.1666667   0.4570690   0.0000000), wk =   0.0052083
        k(  165) = (   0.1666667   0.4811252   0.0000000), wk =   0.0052083
        k(  166) = (   0.1666667   0.5051815   0.0000000), wk =   0.0052083
        k(  167) = (   0.1666667   0.5292377   0.0000000), wk =   0.0052083
        k(  168) = (   0.1666667   0.5532940   0.0000000), wk =   0.0052083
        k(  169) = (   0.1666667   0.5773503   0.0000000), wk =   0.0026042
        k(  170) = (   0.1875000   0.3247595   0.0000000), wk =   0.0026042
        k(  171) = (   0.1875000   0.3488158   0.0000000), wk =   0.0052083
        k(  172) = (   0.1875000   0.3728720   0.0000000), wk =   0.0052083
        k(  173) = (   0.1875000   0.3969283   0.0000000), wk =   0.0052083
        k(  174) = (   0.1875000   0.4209846   0.0000000), wk =   0.0052083
        k(  175) = (   0.1875000   0.4450408   0.0000000), wk =   0.0052083
        k(  176) = (   0.1875000   0.4690971   0.0000000), wk =   0.0052083
        k(  177) = (   0.1875000   0.4931534   0.0000000), wk =   0.0052083
        k(  178) = (   0.1875000   0.5172096   0.0000000), wk =   0.0052083
        k(  179) = (   0.1875000   0.5412659   0.0000000), wk =   0.0052083
        k(  180) = (   0.1875000   0.5653221   0.0000000), wk =   0.0052083
        k(  181) = (   0.2083333   0.3608439   0.0000000), wk =   0.0026042
        k(  182) = (   0.2083333   0.3849002   0.0000000), wk =   0.0052083
        k(  183) = (   0.2083333   0.4089564   0.0000000), wk =   0.0052083
        k(  184) = (   0.2083333   0.4330127   0.0000000), wk =   0.0052083
        k(  185) = (   0.2083333   0.4570690   0.0000000), wk =   0.0052083
        k(  186) = (   0.2083333   0.4811252   0.0000000), wk =   0.0052083
        k(  187) = (   0.2083333   0.5051815   0.0000000), wk =   0.0052083
        k(  188) = (   0.2083333   0.5292377   0.0000000), wk =   0.0052083
        k(  189) = (   0.2083333   0.5532940   0.0000000), wk =   0.0052083
        k(  190) = (   0.2083333   0.5773503   0.0000000), wk =   0.0026042
        k(  191) = (   0.2291667   0.3969283   0.0000000), wk =   0.0026042
        k(  192) = (   0.2291667   0.4209846   0.0000000), wk =   0.0052083
        k(  193) = (   0.2291667   0.4450408   0.0000000), wk =   0.0052083
        k(  194) = (   0.2291667   0.4690971   0.0000000), wk =   0.0052083
        k(  195) = (   0.2291667   0.4931534   0.0000000), wk =   0.0052083
        k(  196) = (   0.2291667   0.5172096   0.0000000), wk =   0.0052083
        k(  197) = (   0.2291667   0.5412659   0.0000000), wk =   0.0052083
        k(  198) = (   0.2291667   0.5653221   0.0000000), wk =   0.0052083
        k(  199) = (   0.2500000   0.4330127   0.0000000), wk =   0.0026042
        k(  200) = (   0.2500000   0.4570690   0.0000000), wk =   0.0052083
        k(  201) = (   0.2500000   0.4811252   0.0000000), wk =   0.0052083
        k(  202) = (   0.2500000   0.5051815   0.0000000), wk =   0.0052083
        k(  203) = (   0.2500000   0.5292377   0.0000000), wk =   0.0052083
        k(  204) = (   0.2500000   0.5532940   0.0000000), wk =   0.0052083
        k(  205) = (   0.2500000   0.5773503   0.0000000), wk =   0.0026042
        k(  206) = (   0.2708333   0.4690971   0.0000000), wk =   0.0026042
        k(  207) = (   0.2708333   0.4931534   0.0000000), wk =   0.0052083
        k(  208) = (   0.2708333   0.5172096   0.0000000), wk =   0.0052083
        k(  209) = (   0.2708333   0.5412659   0.0000000), wk =   0.0052083
        k(  210) = (   0.2708333   0.5653221   0.0000000), wk =   0.0052083
        k(  211) = (   0.2916667   0.5051815   0.0000000), wk =   0.0026042
        k(  212) = (   0.2916667   0.5292377   0.0000000), wk =   0.0052083
        k(  213) = (   0.2916667   0.5532940   0.0000000), wk =   0.0052083
        k(  214) = (   0.2916667   0.5773503   0.0000000), wk =   0.0026042
        k(  215) = (   0.3125000   0.5412659   0.0000000), wk =   0.0026042
        k(  216) = (   0.3125000   0.5653221   0.0000000), wk =   0.0052083
        k(  217) = (   0.3333333   0.5773503   0.0000000), wk =   0.0008681

                       cryst. coord.
        k(    1) = (   0.0000000   0.0000000   0.0000000), wk =   0.0004340
        k(    2) = (   0.0000000   0.0208333   0.0000000), wk =   0.0026042
        k(    3) = (   0.0000000   0.0416667   0.0000000), wk =   0.0026042
        k(    4) = (   0.0000000   0.0625000   0.0000000), wk =   0.0026042
        k(    5) = (   0.0000000   0.0833333   0.0000000), wk =   0.0026042
        k(    6) = (   0.0000000   0.1041667   0.0000000), wk =   0.0026042
        k(    7) = (   0.0000000   0.1250000   0.0000000), wk =   0.0026042
        k(    8) = (   0.0000000   0.1458333   0.0000000), wk =   0.0026042
        k(    9) = (   0.0000000   0.1666667   0.0000000), wk =   0.0026042
        k(   10) = (   0.0000000   0.1875000   0.0000000), wk =   0.0026042
        k(   11) = (   0.0000000   0.2083333   0.0000000), wk =   0.0026042
        k(   12) = (   0.0000000   0.2291667   0.0000000), wk =   0.0026042
        k(   13) = (   0.0000000   0.2500000   0.0000000), wk =   0.0026042
        k(   14) = (   0.0000000   0.2708333   0.0000000), wk =   0.0026042
        k(   15) = (   0.0000000   0.2916667   0.0000000), wk =   0.0026042
        k(   16) = (   0.0000000   0.3125000   0.0000000), wk =   0.0026042
        k(   17) = (   0.0000000   0.3333333   0.0000000), wk =   0.0026042
        k(   18) = (   0.0000000   0.3541667   0.0000000), wk =   0.0026042
        k(   19) = (   0.0000000   0.3750000   0.0000000), wk =   0.0026042
        k(   20) = (   0.0000000   0.3958333   0.0000000), wk =   0.0026042
        k(   21) = (   0.0000000   0.4166667   0.0000000), wk =   0.0026042
        k(   22) = (   0.0000000   0.4375000   0.0000000), wk =   0.0026042
        k(   23) = (   0.0000000   0.4583333   0.0000000), wk =   0.0026042
        k(   24) = (   0.0000000   0.4791667   0.0000000), wk =   0.0026042
        k(   25) = (   0.0000000  -0.5000000   0.0000000), wk =   0.0013021
        k(   26) = (   0.0208333   0.0208333   0.0000000), wk =   0.0026042
        k(   27) = (   0.0208333   0.0416667   0.0000000), wk =   0.0052083
        k(   28) = (   0.0208333   0.0625000   0.0000000), wk =   0.0052083
        k(   29) = (   0.0208333   0.0833333   0.0000000), wk =   0.0052083
        k(   30) = (   0.0208333   0.1041667   0.0000000), wk =   0.0052083
        k(   31) = (   0.0208333   0.1250000   0.0000000), wk =   0.0052083
        k(   32) = (   0.0208333   0.1458333   0.0000000), wk =   0.0052083
        k(   33) = (   0.0208333   0.1666667   0.0000000), wk =   0.0052083
        k(   34) = (   0.0208333   0.1875000   0.0000000), wk =   0.0052083
        k(   35) = (   0.0208333   0.2083333   0.0000000), wk =   0.0052083
        k(   36) = (   0.0208333   0.2291667   0.0000000), wk =   0.0052083
        k(   37) = (   0.0208333   0.2500000   0.0000000), wk =   0.0052083
        k(   38) = (   0.0208333   0.2708333   0.0000000), wk =   0.0052083
        k(   39) = (   0.0208333   0.2916667   0.0000000), wk =   0.0052083
        k(   40) = (   0.0208333   0.3125000   0.0000000), wk =   0.0052083
        k(   41) = (   0.0208333   0.3333333   0.0000000), wk =   0.0052083
        k(   42) = (   0.0208333   0.3541667   0.0000000), wk =   0.0052083
        k(   43) = (   0.0208333   0.3750000   0.0000000), wk =   0.0052083
        k(   44) = (   0.0208333   0.3958333   0.0000000), wk =   0.0052083
        k(   45) = (   0.0208333   0.4166667   0.0000000), wk =   0.0052083
        k(   46) = (   0.0208333   0.4375000   0.0000000), wk =   0.0052083
        k(   47) = (   0.0208333   0.4583333   0.0000000), wk =   0.0052083
        k(   48) = (   0.0208333   0.4791667   0.0000000), wk =   0.0052083
        k(   49) = (   0.0416667   0.0416667   0.0000000), wk =   0.0026042
        k(   50) = (   0.0416667   0.0625000   0.0000000), wk =   0.0052083
        k(   51) = (   0.0416667   0.0833333   0.0000000), wk =   0.0052083
        k(   52) = (   0.0416667   0.1041667   0.0000000), wk =   0.0052083
        k(   53) = (   0.0416667   0.1250000   0.0000000), wk =   0.0052083
        k(   54) = (   0.0416667   0.1458333   0.0000000), wk =   0.0052083
        k(   55) = (   0.0416667   0.1666667   0.0000000), wk =   0.0052083
        k(   56) = (   0.0416667   0.1875000   0.0000000), wk =   0.0052083
        k(   57) = (   0.0416667   0.2083333   0.0000000), wk =   0.0052083
        k(   58) = (   0.0416667   0.2291667   0.0000000), wk =   0.0052083
        k(   59) = (   0.0416667   0.2500000   0.0000000), wk =   0.0052083
        k(   60) = (   0.0416667   0.2708333   0.0000000), wk =   0.0052083
        k(   61) = (   0.0416667   0.2916667   0.0000000), wk =   0.0052083
        k(   62) = (   0.0416667   0.3125000   0.0000000), wk =   0.0052083
        k(   63) = (   0.0416667   0.3333333   0.0000000), wk =   0.0052083
        k(   64) = (   0.0416667   0.3541667   0.0000000), wk =   0.0052083
        k(   65) = (   0.0416667   0.3750000   0.0000000), wk =   0.0052083
        k(   66) = (   0.0416667   0.3958333   0.0000000), wk =   0.0052083
        k(   67) = (   0.0416667   0.4166667   0.0000000), wk =   0.0052083
        k(   68) = (   0.0416667   0.4375000   0.0000000), wk =   0.0052083
        k(   69) = (   0.0416667   0.4583333   0.0000000), wk =   0.0052083
        k(   70) = (   0.0416667   0.4791667   0.0000000), wk =   0.0026042
        k(   71) = (   0.0625000   0.0625000   0.0000000), wk =   0.0026042
        k(   72) = (   0.0625000   0.0833333   0.0000000), wk =   0.0052083
        k(   73) = (   0.0625000   0.1041667   0.0000000), wk =   0.0052083
        k(   74) = (   0.0625000   0.1250000   0.0000000), wk =   0.0052083
        k(   75) = (   0.0625000   0.1458333   0.0000000), wk =   0.0052083
        k(   76) = (   0.0625000   0.1666667   0.0000000), wk =   0.0052083
        k(   77) = (   0.0625000   0.1875000   0.0000000), wk =   0.0052083
        k(   78) = (   0.0625000   0.2083333   0.0000000), wk =   0.0052083
        k(   79) = (   0.0625000   0.2291667   0.0000000), wk =   0.0052083
        k(   80) = (   0.0625000   0.2500000   0.0000000), wk =   0.0052083
        k(   81) = (   0.0625000   0.2708333   0.0000000), wk =   0.0052083
        k(   82) = (   0.0625000   0.2916667   0.0000000), wk =   0.0052083
        k(   83) = (   0.0625000   0.3125000   0.0000000), wk =   0.0052083
        k(   84) = (   0.0625000   0.3333333   0.0000000), wk =   0.0052083
        k(   85) = (   0.0625000   0.3541667   0.0000000), wk =   0.0052083
        k(   86) = (   0.0625000   0.3750000   0.0000000), wk =   0.0052083
        k(   87) = (   0.0625000   0.3958333   0.0000000), wk =   0.0052083
        k(   88) = (   0.0625000   0.4166667   0.0000000), wk =   0.0052083
        k(   89) = (   0.0625000   0.4375000   0.0000000), wk =   0.0052083
        k(   90) = (   0.0625000   0.4583333   0.0000000), wk =   0.0052083
        k(   91) = (   0.0833333   0.0833333   0.0000000), wk =   0.0026042
        k(   92) = (   0.0833333   0.1041667   0.0000000), wk =   0.0052083
        k(   93) = (   0.0833333   0.1250000   0.0000000), wk =   0.0052083
        k(   94) = (   0.0833333   0.1458333   0.0000000), wk =   0.0052083
        k(   95) = (   0.0833333   0.1666667   0.0000000), wk =   0.0052083
        k(   96) = (   0.0833333   0.1875000   0.0000000), wk =   0.0052083
        k(   97) = (   0.0833333   0.2083333   0.0000000), wk =   0.0052083
        k(   98) = (   0.0833333   0.2291667   0.0000000), wk =   0.0052083
        k(   99) = (   0.0833333   0.2500000   0.0000000), wk =   0.0052083
        k(  100) = (   0.0833333   0.2708333   0.0000000), wk =   0.0052083
        k(  101) = (   0.0833333   0.2916667   0.0000000), wk =   0.0052083
        k(  102) = (   0.0833333   0.3125000   0.0000000), wk =   0.0052083
        k(  103) = (   0.0833333   0.3333333   0.0000000), wk =   0.0052083
        k(  104) = (   0.0833333   0.3541667   0.0000000), wk =   0.0052083
        k(  105) = (   0.0833333   0.3750000   0.0000000), wk =   0.0052083
        k(  106) = (   0.0833333   0.3958333   0.0000000), wk =   0.0052083
        k(  107) = (   0.0833333   0.4166667   0.0000000), wk =   0.0052083
        k(  108) = (   0.0833333   0.4375000   0.0000000), wk =   0.0052083
        k(  109) = (   0.0833333   0.4583333   0.0000000), wk =   0.0026042
        k(  110) = (   0.1041667   0.1041667   0.0000000), wk =   0.0026042
        k(  111) = (   0.1041667   0.1250000   0.0000000), wk =   0.0052083
        k(  112) = (   0.1041667   0.1458333   0.0000000), wk =   0.0052083
        k(  113) = (   0.1041667   0.1666667   0.0000000), wk =   0.0052083
        k(  114) = (   0.1041667   0.1875000   0.0000000), wk =   0.0052083
        k(  115) = (   0.1041667   0.2083333   0.0000000), wk =   0.0052083
        k(  116) = (   0.1041667   0.2291667   0.0000000), wk =   0.0052083
        k(  117) = (   0.1041667   0.2500000   0.0000000), wk =   0.0052083
        k(  118) = (   0.1041667   0.2708333   0.0000000), wk =   0.0052083
        k(  119) = (   0.1041667   0.2916667   0.0000000), wk =   0.0052083
        k(  120) = (   0.1041667   0.3125000   0.0000000), wk =   0.0052083
        k(  121) = (   0.1041667   0.3333333   0.0000000), wk =   0.0052083
        k(  122) = (   0.1041667   0.3541667   0.0000000), wk =   0.0052083
        k(  123) = (   0.1041667   0.3750000   0.0000000), wk =   0.0052083
        k(  124) = (   0.1041667   0.3958333   0.0000000), wk =   0.0052083
        k(  125) = (   0.1041667   0.4166667   0.0000000), wk =   0.0052083
        k(  126) = (   0.1041667   0.4375000   0.0000000), wk =   0.0052083
        k(  127) = (   0.1250000   0.1250000   0.0000000), wk =   0.0026042
        k(  128) = (   0.1250000   0.1458333   0.0000000), wk =   0.0052083
        k(  129) = (   0.1250000   0.1666667   0.0000000), wk =   0.0052083
        k(  130) = (   0.1250000   0.1875000   0.0000000), wk =   0.0052083
        k(  131) = (   0.1250000   0.2083333   0.0000000), wk =   0.0052083
        k(  132) = (   0.1250000   0.2291667   0.0000000), wk =   0.0052083
        k(  133) = (   0.1250000   0.2500000   0.0000000), wk =   0.0052083
        k(  134) = (   0.1250000   0.2708333   0.0000000), wk =   0.0052083
        k(  135) = (   0.1250000   0.2916667   0.0000000), wk =   0.0052083
        k(  136) = (   0.1250000   0.3125000   0.0000000), wk =   0.0052083
        k(  137) = (   0.1250000   0.3333333   0.0000000), wk =   0.0052083
        k(  138) = (   0.1250000   0.3541667   0.0000000), wk =   0.0052083
        k(  139) = (   0.1250000   0.3750000   0.0000000), wk =   0.0052083
        k(  140) = (   0.1250000   0.3958333   0.0000000), wk =   0.0052083
        k(  141) = (   0.1250000   0.4166667   0.0000000), wk =   0.0052083
        k(  142) = (   0.1250000   0.4375000   0.0000000), wk =   0.0026042
        k(  143) = (   0.1458333   0.1458333   0.0000000), wk =   0.0026042
        k(  144) = (   0.1458333   0.1666667   0.0000000), wk =   0.0052083
        k(  145) = (   0.1458333   0.1875000   0.0000000), wk =   0.0052083
        k(  146) = (   0.1458333   0.2083333   0.0000000), wk =   0.0052083
        k(  147) = (   0.1458333   0.2291667   0.0000000), wk =   0.0052083
        k(  148) = (   0.1458333   0.2500000   0.0000000), wk =   0.0052083
        k(  149) = (   0.1458333   0.2708333   0.0000000), wk =   0.0052083
        k(  150) = (   0.1458333   0.2916667   0.0000000), wk =   0.0052083
        k(  151) = (   0.1458333   0.3125000   0.0000000), wk =   0.0052083
        k(  152) = (   0.1458333   0.3333333   0.0000000), wk =   0.0052083
        k(  153) = (   0.1458333   0.3541667   0.0000000), wk =   0.0052083
        k(  154) = (   0.1458333   0.3750000   0.0000000), wk =   0.0052083
        k(  155) = (   0.1458333   0.3958333   0.0000000), wk =   0.0052083
        k(  156) = (   0.1458333   0.4166667   0.0000000), wk =   0.0052083
        k(  157) = (   0.1666667   0.1666667   0.0000000), wk =   0.0026042
        k(  158) = (   0.1666667   0.1875000   0.0000000), wk =   0.0052083
        k(  159) = (   0.1666667   0.2083333   0.0000000), wk =   0.0052083
        k(  160) = (   0.1666667   0.2291667   0.0000000), wk =   0.0052083
        k(  161) = (   0.1666667   0.2500000   0.0000000), wk =   0.0052083
        k(  162) = (   0.1666667   0.2708333   0.0000000), wk =   0.0052083
        k(  163) = (   0.1666667   0.2916667   0.0000000), wk =   0.0052083
        k(  164) = (   0.1666667   0.3125000   0.0000000), wk =   0.0052083
        k(  165) = (   0.1666667   0.3333333   0.0000000), wk =   0.0052083
        k(  166) = (   0.1666667   0.3541667   0.0000000), wk =   0.0052083
        k(  167) = (   0.1666667   0.3750000   0.0000000), wk =   0.0052083
        k(  168) = (   0.1666667   0.3958333   0.0000000), wk =   0.0052083
        k(  169) = (   0.1666667   0.4166667   0.0000000), wk =   0.0026042
        k(  170) = (   0.1875000   0.1875000   0.0000000), wk =   0.0026042
        k(  171) = (   0.1875000   0.2083333   0.0000000), wk =   0.0052083
        k(  172) = (   0.1875000   0.2291667   0.0000000), wk =   0.0052083
        k(  173) = (   0.1875000   0.2500000   0.0000000), wk =   0.0052083
        k(  174) = (   0.1875000   0.2708333   0.0000000), wk =   0.0052083
        k(  175) = (   0.1875000   0.2916667   0.0000000), wk =   0.0052083
        k(  176) = (   0.1875000   0.3125000   0.0000000), wk =   0.0052083
        k(  177) = (   0.1875000   0.3333333   0.0000000), wk =   0.0052083
        k(  178) = (   0.1875000   0.3541667   0.0000000), wk =   0.0052083
        k(  179) = (   0.1875000   0.3750000   0.0000000), wk =   0.0052083
        k(  180) = (   0.1875000   0.3958333   0.0000000), wk =   0.0052083
        k(  181) = (   0.2083333   0.2083333   0.0000000), wk =   0.0026042
        k(  182) = (   0.2083333   0.2291667   0.0000000), wk =   0.0052083
        k(  183) = (   0.2083333   0.2500000   0.0000000), wk =   0.0052083
        k(  184) = (   0.2083333   0.2708333   0.0000000), wk =   0.0052083
        k(  185) = (   0.2083333   0.2916667   0.0000000), wk =   0.0052083
        k(  186) = (   0.2083333   0.3125000   0.0000000), wk =   0.0052083
        k(  187) = (   0.2083333   0.3333333   0.0000000), wk =   0.0052083
        k(  188) = (   0.2083333   0.3541667   0.0000000), wk =   0.0052083
        k(  189) = (   0.2083333   0.3750000   0.0000000), wk =   0.0052083
        k(  190) = (   0.2083333   0.3958333   0.0000000), wk =   0.0026042
        k(  191) = (   0.2291667   0.2291667   0.0000000), wk =   0.0026042
        k(  192) = (   0.2291667   0.2500000   0.0000000), wk =   0.0052083
        k(  193) = (   0.2291667   0.2708333   0.0000000), wk =   0.0052083
        k(  194) = (   0.2291667   0.2916667   0.0000000), wk =   0.0052083
        k(  195) = (   0.2291667   0.3125000   0.0000000), wk =   0.0052083
        k(  196) = (   0.2291667   0.3333333   0.0000000), wk =   0.0052083
        k(  197) = (   0.2291667   0.3541667   0.0000000), wk =   0.0052083
        k(  198) = (   0.2291667   0.3750000   0.0000000), wk =   0.0052083
        k(  199) = (   0.2500000   0.2500000   0.0000000), wk =   0.0026042
        k(  200) = (   0.2500000   0.2708333   0.0000000), wk =   0.0052083
        k(  201) = (   0.2500000   0.2916667   0.0000000), wk =   0.0052083
        k(  202) = (   0.2500000   0.3125000   0.0000000), wk =   0.0052083
        k(  203) = (   0.2500000   0.3333333   0.0000000), wk =   0.0052083
        k(  204) = (   0.2500000   0.3541667   0.0000000), wk =   0.0052083
        k(  205) = (   0.2500000   0.3750000   0.0000000), wk =   0.0026042
        k(  206) = (   0.2708333   0.2708333   0.0000000), wk =   0.0026042
        k(  207) = (   0.2708333   0.2916667   0.0000000), wk =   0.0052083
        k(  208) = (   0.2708333   0.3125000   0.0000000), wk =   0.0052083
        k(  209) = (   0.2708333   0.3333333   0.0000000), wk =   0.0052083
        k(  210) = (   0.2708333   0.3541667   0.0000000), wk =   0.0052083
        k(  211) = (   0.2916667   0.2916667   0.0000000), wk =   0.0026042
        k(  212) = (   0.2916667   0.3125000   0.0000000), wk =   0.0052083
        k(  213) = (   0.2916667   0.3333333   0.0000000), wk =   0.0052083
        k(  214) = (   0.2916667   0.3541667   0.0000000), wk =   0.0026042
        k(  215) = (   0.3125000   0.3125000   0.0000000), wk =   0.0026042
        k(  216) = (   0.3125000   0.3333333   0.0000000), wk =   0.0052083
        k(  217) = (   0.3333333   0.3333333   0.0000000), wk =   0.0008681

     Dense  grid:    56613 G-vectors     FFT dimensions: (  30,  30, 150)

     Dynamical RAM for                 wfc:       0.06 MB

     Dynamical RAM for     wfc (w. buffer):       0.06 MB

     Dynamical RAM for           str. fact:       0.02 MB

     Dynamical RAM for           local pot:       0.00 MB

     Dynamical RAM for          nlocal pot:       0.03 MB

     Dynamical RAM for                qrad:       1.78 MB

     Dynamical RAM for          rho,v,vnew:       0.14 MB

     Dynamical RAM for           G-vectors:       0.04 MB

     Dynamical RAM for          h,s,v(r/c):       1.83 MB

     Dynamical RAM for          <psi|beta>:       0.02 MB

     Dynamical RAM for                 psi:       0.25 MB

     Dynamical RAM for                hpsi:       0.25 MB

     Dynamical RAM for      wfcinit/wfcrot:       0.18 MB

     Estimated static dynamical RAM per process >       2.19 MB

     Estimated max dynamical RAM per process >       4.55 MB

     Estimated total dynamical RAM >     382.00 MB

     Check: negative core charge=   -0.000110
     Generating pointlists ...
     new r_m :   0.3148 (alat units)  1.8502 (a.u.) for type    1
     new r_m :   0.3148 (alat units)  1.8502 (a.u.) for type    2

     The potential is recalculated from file :
     run_output/MoS2.save/charge-density

     Starting wfcs are   28 randomized atomic wfcs +   22 random wfcs

     Band Structure Calculation
     Davidson diagonalization with overlap

     Computing kpt #:     1  of   434
     total cpu time spent up to now is        2.6 secs

     Computing kpt #:     2  of   434
     total cpu time spent up to now is        2.9 secs

     Computing kpt #:     3  of   434
     total cpu time spent up to now is        3.3 secs

     Computing kpt #:     4  of   434
     total cpu time spent up to now is        3.6 secs

     Computing kpt #:     5  of   434
     total cpu time spent up to now is        3.9 secs

     Computing kpt #:     6  of   434
     total cpu time spent up to now is        4.3 secs

     Computing kpt #:     7  of   434
     total cpu time spent up to now is        4.6 secs

     Computing kpt #:     8  of   434
     total cpu time spent up to now is        4.9 secs

     Computing kpt #:     9  of   434
     total cpu time spent up to now is        5.3 secs

     Computing kpt #:    10  of   434
     total cpu time spent up to now is        5.6 secs

     Computing kpt #:    11  of   434
     total cpu time spent up to now is        5.9 secs

     Computing kpt #:    12  of   434
     total cpu time spent up to now is        6.2 secs

     Computing kpt #:    13  of   434
     total cpu time spent up to now is        6.5 secs

     Computing kpt #:    14  of   434
     total cpu time spent up to now is        6.8 secs

     Computing kpt #:    15  of   434
     total cpu time spent up to now is        7.1 secs

     Computing kpt #:    16  of   434
     total cpu time spent up to now is        7.4 secs

     Computing kpt #:    17  of   434
     total cpu time spent up to now is        7.7 secs

     Computing kpt #:    18  of   434
     total cpu time spent up to now is        8.0 secs

     Computing kpt #:    19  of   434
     total cpu time spent up to now is        8.3 secs

     Computing kpt #:    20  of   434
     total cpu time spent up to now is        8.6 secs

     Computing kpt #:    21  of   434
     total cpu time spent up to now is        8.9 secs

     Computing kpt #:    22  of   434
     total cpu time spent up to now is        9.3 secs

     Computing kpt #:    23  of   434
     total cpu time spent up to now is        9.6 secs

     Computing kpt #:    24  of   434
     total cpu time spent up to now is        9.9 secs

     Computing kpt #:    25  of   434
     total cpu time spent up to now is       10.2 secs

     Computing kpt #:    26  of   434
     total cpu time spent up to now is       10.5 secs

     Computing kpt #:    27  of   434
     total cpu time spent up to now is       10.9 secs

     Computing kpt #:    28  of   434
     total cpu time spent up to now is       11.3 secs

     Computing kpt #:    29  of   434
     total cpu time spent up to now is       11.6 secs

     Computing kpt #:    30  of   434
     total cpu time spent up to now is       11.9 secs

     Computing kpt #:    31  of   434
     total cpu time spent up to now is       12.2 secs

     Computing kpt #:    32  of   434
     total cpu time spent up to now is       12.6 secs

     Computing kpt #:    33  of   434
     total cpu time spent up to now is       12.9 secs

     Computing kpt #:    34  of   434
     total cpu time spent up to now is       13.2 secs

     Computing kpt #:    35  of   434
     total cpu time spent up to now is       13.5 secs

     Computing kpt #:    36  of   434
     total cpu time spent up to now is       13.8 secs

     Computing kpt #:    37  of   434
     total cpu time spent up to now is       14.1 secs

     Computing kpt #:    38  of   434
     total cpu time spent up to now is       14.5 secs

     Computing kpt #:    39  of   434
     total cpu time spent up to now is       14.8 secs

     Computing kpt #:    40  of   434
     total cpu time spent up to now is       15.1 secs

     Computing kpt #:    41  of   434
     total cpu time spent up to now is       15.4 secs

     Computing kpt #:    42  of   434
     total cpu time spent up to now is       15.7 secs

     Computing kpt #:    43  of   434
     total cpu time spent up to now is       16.0 secs

     Computing kpt #:    44  of   434
     total cpu time spent up to now is       16.4 secs

     Computing kpt #:    45  of   434
     total cpu time spent up to now is       16.7 secs

     Computing kpt #:    46  of   434
     total cpu time spent up to now is       17.0 secs

     Computing kpt #:    47  of   434
     total cpu time spent up to now is       17.3 secs

     Computing kpt #:    48  of   434
     total cpu time spent up to now is       17.6 secs

     Computing kpt #:    49  of   434
     total cpu time spent up to now is       17.9 secs

     Computing kpt #:    50  of   434
     total cpu time spent up to now is       18.2 secs

     Computing kpt #:    51  of   434
     total cpu time spent up to now is       18.6 secs

     Computing kpt #:    52  of   434
     total cpu time spent up to now is       18.9 secs

     Computing kpt #:    53  of   434
     total cpu time spent up to now is       19.2 secs

     Computing kpt #:    54  of   434
     total cpu time spent up to now is       19.5 secs

     Computing kpt #:    55  of   434
     total cpu time spent up to now is       19.8 secs

     Computing kpt #:    56  of   434
     total cpu time spent up to now is       20.1 secs

     Computing kpt #:    57  of   434
     total cpu time spent up to now is       20.4 secs

     Computing kpt #:    58  of   434
     total cpu time spent up to now is       20.8 secs

     Computing kpt #:    59  of   434
     total cpu time spent up to now is       21.1 secs

     Computing kpt #:    60  of   434
     total cpu time spent up to now is       21.4 secs

     Computing kpt #:    61  of   434
     total cpu time spent up to now is       21.8 secs

     Computing kpt #:    62  of   434
     total cpu time spent up to now is       22.1 secs

     Computing kpt #:    63  of   434
     total cpu time spent up to now is       22.4 secs

     Computing kpt #:    64  of   434
     total cpu time spent up to now is       22.7 secs

     Computing kpt #:    65  of   434
     total cpu time spent up to now is       23.1 secs

     Computing kpt #:    66  of   434
     total cpu time spent up to now is       23.4 secs

     Computing kpt #:    67  of   434
     total cpu time spent up to now is       23.7 secs

     Computing kpt #:    68  of   434
     total cpu time spent up to now is       24.0 secs

     Computing kpt #:    69  of   434
     total cpu time spent up to now is       24.3 secs

     Computing kpt #:    70  of   434
     total cpu time spent up to now is       24.6 secs

     Computing kpt #:    71  of   434
     total cpu time spent up to now is       24.9 secs

     Computing kpt #:    72  of   434
     total cpu time spent up to now is       25.2 secs

     Computing kpt #:    73  of   434
     total cpu time spent up to now is       25.6 secs

     Computing kpt #:    74  of   434
     total cpu time spent up to now is       25.9 secs

     Computing kpt #:    75  of   434
     total cpu time spent up to now is       26.2 secs

     Computing kpt #:    76  of   434
     total cpu time spent up to now is       26.5 secs

     Computing kpt #:    77  of   434
     total cpu time spent up to now is       26.8 secs

     Computing kpt #:    78  of   434
     total cpu time spent up to now is       27.1 secs

     Computing kpt #:    79  of   434
     total cpu time spent up to now is       27.4 secs

     Computing kpt #:    80  of   434
     total cpu time spent up to now is       27.7 secs

     Computing kpt #:    81  of   434
     total cpu time spent up to now is       28.1 secs

     Computing kpt #:    82  of   434
     total cpu time spent up to now is       28.4 secs

     Computing kpt #:    83  of   434
     total cpu time spent up to now is       28.7 secs

     Computing kpt #:    84  of   434
     total cpu time spent up to now is       29.0 secs

     Computing kpt #:    85  of   434
     total cpu time spent up to now is       29.3 secs

     Computing kpt #:    86  of   434
     total cpu time spent up to now is       29.6 secs

     Computing kpt #:    87  of   434
     total cpu time spent up to now is       29.9 secs

     Computing kpt #:    88  of   434
     total cpu time spent up to now is       30.2 secs

     Computing kpt #:    89  of   434
     total cpu time spent up to now is       30.5 secs

     Computing kpt #:    90  of   434
     total cpu time spent up to now is       30.8 secs

     Computing kpt #:    91  of   434
     total cpu time spent up to now is       31.2 secs

     Computing kpt #:    92  of   434
     total cpu time spent up to now is       31.5 secs

     Computing kpt #:    93  of   434
     total cpu time spent up to now is       31.8 secs

     Computing kpt #:    94  of   434
     total cpu time spent up to now is       32.1 secs

     Computing kpt #:    95  of   434
     total cpu time spent up to now is       32.4 secs

     Computing kpt #:    96  of   434
     total cpu time spent up to now is       32.8 secs

     Computing kpt #:    97  of   434
     total cpu time spent up to now is       33.1 secs

     Computing kpt #:    98  of   434
     total cpu time spent up to now is       33.4 secs

     Computing kpt #:    99  of   434
     total cpu time spent up to now is       33.7 secs

     Computing kpt #:   100  of   434
     total cpu time spent up to now is       34.1 secs

     Computing kpt #:   101  of   434
     total cpu time spent up to now is       34.4 secs

     Computing kpt #:   102  of   434
     total cpu time spent up to now is       34.7 secs

     Computing kpt #:   103  of   434
     total cpu time spent up to now is       38.5 secs

     Computing kpt #:   104  of   434
     total cpu time spent up to now is       40.3 secs

     Computing kpt #:   105  of   434
     total cpu time spent up to now is       41.0 secs

     Computing kpt #:   106  of   434
     total cpu time spent up to now is       41.3 secs

     Computing kpt #:   107  of   434
     total cpu time spent up to now is       41.6 secs

     Computing kpt #:   108  of   434
     total cpu time spent up to now is       41.9 secs

     Computing kpt #:   109  of   434
     total cpu time spent up to now is       42.2 secs

     Computing kpt #:   110  of   434
     total cpu time spent up to now is       42.6 secs

     Computing kpt #:   111  of   434
     total cpu time spent up to now is       42.9 secs

     Computing kpt #:   112  of   434
     total cpu time spent up to now is       43.2 secs

     Computing kpt #:   113  of   434
     total cpu time spent up to now is       43.5 secs

     Computing kpt #:   114  of   434
     total cpu time spent up to now is       43.8 secs

     Computing kpt #:   115  of   434
     total cpu time spent up to now is       44.1 secs

     Computing kpt #:   116  of   434
     total cpu time spent up to now is       44.5 secs

     Computing kpt #:   117  of   434
     total cpu time spent up to now is       44.8 secs

     Computing kpt #:   118  of   434
     total cpu time spent up to now is       45.1 secs

     Computing kpt #:   119  of   434
     total cpu time spent up to now is       45.4 secs

     Computing kpt #:   120  of   434
     total cpu time spent up to now is       45.7 secs

     Computing kpt #:   121  of   434
     total cpu time spent up to now is       46.1 secs

     Computing kpt #:   122  of   434
     total cpu time spent up to now is       46.4 secs

     Computing kpt #:   123  of   434
     total cpu time spent up to now is       46.7 secs

     Computing kpt #:   124  of   434
     total cpu time spent up to now is       47.0 secs

     Computing kpt #:   125  of   434
     total cpu time spent up to now is       47.3 secs

     Computing kpt #:   126  of   434
     total cpu time spent up to now is       47.6 secs

     Computing kpt #:   127  of   434
     total cpu time spent up to now is       47.9 secs

     Computing kpt #:   128  of   434
     total cpu time spent up to now is       48.2 secs

     Computing kpt #:   129  of   434
     total cpu time spent up to now is       48.5 secs

     Computing kpt #:   130  of   434
     total cpu time spent up to now is       48.8 secs

     Computing kpt #:   131  of   434
     total cpu time spent up to now is       49.1 secs

     Computing kpt #:   132  of   434
     total cpu time spent up to now is       49.5 secs

     Computing kpt #:   133  of   434
     total cpu time spent up to now is       49.8 secs

     Computing kpt #:   134  of   434
     total cpu time spent up to now is       50.1 secs

     Computing kpt #:   135  of   434
     total cpu time spent up to now is       50.4 secs

     Computing kpt #:   136  of   434
     total cpu time spent up to now is       50.8 secs

     Computing kpt #:   137  of   434
     total cpu time spent up to now is       51.1 secs

     Computing kpt #:   138  of   434
     total cpu time spent up to now is       51.4 secs

     Computing kpt #:   139  of   434
     total cpu time spent up to now is       51.7 secs

     Computing kpt #:   140  of   434
     total cpu time spent up to now is       52.0 secs

     Computing kpt #:   141  of   434
     total cpu time spent up to now is       52.3 secs

     Computing kpt #:   142  of   434
     total cpu time spent up to now is       52.6 secs

     Computing kpt #:   143  of   434
     total cpu time spent up to now is       52.9 secs

     Computing kpt #:   144  of   434
     total cpu time spent up to now is       53.2 secs

     Computing kpt #:   145  of   434
     total cpu time spent up to now is       53.6 secs

     Computing kpt #:   146  of   434
     total cpu time spent up to now is       53.9 secs

     Computing kpt #:   147  of   434
     total cpu time spent up to now is       54.2 secs

     Computing kpt #:   148  of   434
     total cpu time spent up to now is       54.5 secs

     Computing kpt #:   149  of   434
     total cpu time spent up to now is       54.8 secs

     Computing kpt #:   150  of   434
     total cpu time spent up to now is       55.1 secs

     Computing kpt #:   151  of   434
     total cpu time spent up to now is       55.5 secs

     Computing kpt #:   152  of   434
     total cpu time spent up to now is       55.8 secs

     Computing kpt #:   153  of   434
     total cpu time spent up to now is       56.1 secs

     Computing kpt #:   154  of   434
     total cpu time spent up to now is       56.4 secs

     Computing kpt #:   155  of   434
     total cpu time spent up to now is       56.7 secs

     Computing kpt #:   156  of   434
     total cpu time spent up to now is       57.0 secs

     Computing kpt #:   157  of   434
     total cpu time spent up to now is       57.4 secs

     Computing kpt #:   158  of   434
     total cpu time spent up to now is       57.7 secs

     Computing kpt #:   159  of   434
     total cpu time spent up to now is       58.0 secs

     Computing kpt #:   160  of   434
     total cpu time spent up to now is       58.3 secs

     Computing kpt #:   161  of   434
     total cpu time spent up to now is       58.7 secs

     Computing kpt #:   162  of   434
     total cpu time spent up to now is       59.0 secs

     Computing kpt #:   163  of   434
     total cpu time spent up to now is       59.3 secs

     Computing kpt #:   164  of   434
     total cpu time spent up to now is       59.6 secs

     Computing kpt #:   165  of   434
     total cpu time spent up to now is       60.0 secs

     Computing kpt #:   166  of   434
     total cpu time spent up to now is       60.3 secs

     Computing kpt #:   167  of   434
     total cpu time spent up to now is       60.6 secs

     Computing kpt #:   168  of   434
     total cpu time spent up to now is       60.9 secs

     Computing kpt #:   169  of   434
     total cpu time spent up to now is       61.2 secs

     Computing kpt #:   170  of   434
     total cpu time spent up to now is       61.5 secs

     Computing kpt #:   171  of   434
     total cpu time spent up to now is       61.8 secs

     Computing kpt #:   172  of   434
     total cpu time spent up to now is       62.2 secs

     Computing kpt #:   173  of   434
     total cpu time spent up to now is       62.5 secs

     Computing kpt #:   174  of   434
     total cpu time spent up to now is       62.8 secs

     Computing kpt #:   175  of   434
     total cpu time spent up to now is       63.2 secs

     Computing kpt #:   176  of   434
     total cpu time spent up to now is       63.5 secs

     Computing kpt #:   177  of   434
     total cpu time spent up to now is       63.8 secs

     Computing kpt #:   178  of   434
     total cpu time spent up to now is       64.1 secs

     Computing kpt #:   179  of   434
     total cpu time spent up to now is       64.5 secs

     Computing kpt #:   180  of   434
     total cpu time spent up to now is       64.9 secs

     Computing kpt #:   181  of   434
     total cpu time spent up to now is       65.2 secs

     Computing kpt #:   182  of   434
     total cpu time spent up to now is       65.6 secs

     Computing kpt #:   183  of   434
     total cpu time spent up to now is       65.9 secs

     Computing kpt #:   184  of   434
     total cpu time spent up to now is       66.2 secs

     Computing kpt #:   185  of   434
     total cpu time spent up to now is       66.5 secs

     Computing kpt #:   186  of   434
     total cpu time spent up to now is       66.8 secs

     Computing kpt #:   187  of   434
     total cpu time spent up to now is       67.1 secs

     Computing kpt #:   188  of   434
     total cpu time spent up to now is       67.4 secs

     Computing kpt #:   189  of   434
     total cpu time spent up to now is       67.8 secs

     Computing kpt #:   190  of   434
     total cpu time spent up to now is       68.2 secs

     Computing kpt #:   191  of   434
     total cpu time spent up to now is       68.5 secs

     Computing kpt #:   192  of   434
     total cpu time spent up to now is       68.8 secs

     Computing kpt #:   193  of   434
     total cpu time spent up to now is       69.1 secs

     Computing kpt #:   194  of   434
     total cpu time spent up to now is       69.4 secs

     Computing kpt #:   195  of   434
     total cpu time spent up to now is       69.7 secs

     Computing kpt #:   196  of   434
     total cpu time spent up to now is       73.2 secs

     Computing kpt #:   197  of   434
     total cpu time spent up to now is       74.6 secs

     Computing kpt #:   198  of   434
     total cpu time spent up to now is       75.0 secs

     Computing kpt #:   199  of   434
     total cpu time spent up to now is       75.3 secs

     Computing kpt #:   200  of   434
     total cpu time spent up to now is       75.6 secs

     Computing kpt #:   201  of   434
     total cpu time spent up to now is       75.9 secs

     Computing kpt #:   202  of   434
     total cpu time spent up to now is       76.2 secs

     Computing kpt #:   203  of   434
     total cpu time spent up to now is       76.5 secs

     Computing kpt #:   204  of   434
     total cpu time spent up to now is       76.8 secs

     Computing kpt #:   205  of   434
     total cpu time spent up to now is       77.2 secs

     Computing kpt #:   206  of   434
     total cpu time spent up to now is       77.5 secs

     Computing kpt #:   207  of   434
     total cpu time spent up to now is       77.8 secs

     Computing kpt #:   208  of   434
     total cpu time spent up to now is       78.1 secs

     Computing kpt #:   209  of   434
     total cpu time spent up to now is       78.4 secs

     Computing kpt #:   210  of   434
     total cpu time spent up to now is       78.7 secs

     Computing kpt #:   211  of   434
     total cpu time spent up to now is       79.0 secs

     Computing kpt #:   212  of   434
     total cpu time spent up to now is       79.4 secs

     Computing kpt #:   213  of   434
     total cpu time spent up to now is       79.7 secs

     Computing kpt #:   214  of   434
     total cpu time spent up to now is       80.1 secs

     Computing kpt #:   215  of   434
     total cpu time spent up to now is       80.4 secs

     Computing kpt #:   216  of   434
     total cpu time spent up to now is       80.7 secs

     Computing kpt #:   217  of   434
     total cpu time spent up to now is       81.1 secs

     Computing kpt #:   218  of   434
     total cpu time spent up to now is       81.5 secs

     Computing kpt #:   219  of   434
     total cpu time spent up to now is       81.9 secs

     Computing kpt #:   220  of   434
     total cpu time spent up to now is       82.2 secs

     Computing kpt #:   221  of   434
     total cpu time spent up to now is       82.6 secs

     Computing kpt #:   222  of   434
     total cpu time spent up to now is       82.9 secs

     Computing kpt #:   223  of   434
     total cpu time spent up to now is       83.2 secs

     Computing kpt #:   224  of   434
     total cpu time spent up to now is       83.5 secs

     Computing kpt #:   225  of   434
     total cpu time spent up to now is       83.8 secs

     Computing kpt #:   226  of   434
     total cpu time spent up to now is       84.1 secs

     Computing kpt #:   227  of   434
     total cpu time spent up to now is       84.5 secs

     Computing kpt #:   228  of   434
     total cpu time spent up to now is       84.8 secs

     Computing kpt #:   229  of   434
     total cpu time spent up to now is       85.1 secs

     Computing kpt #:   230  of   434
     total cpu time spent up to now is       85.4 secs

     Computing kpt #:   231  of   434
     total cpu time spent up to now is       85.7 secs

     Computing kpt #:   232  of   434
     total cpu time spent up to now is       86.0 secs

     Computing kpt #:   233  of   434
     total cpu time spent up to now is       86.4 secs

     Computing kpt #:   234  of   434
     total cpu time spent up to now is       86.7 secs

     Computing kpt #:   235  of   434
     total cpu time spent up to now is       87.0 secs

     Computing kpt #:   236  of   434
     total cpu time spent up to now is       87.3 secs

     Computing kpt #:   237  of   434
     total cpu time spent up to now is       87.6 secs

     Computing kpt #:   238  of   434
     total cpu time spent up to now is       87.9 secs

     Computing kpt #:   239  of   434
     total cpu time spent up to now is       88.2 secs

     Computing kpt #:   240  of   434
     total cpu time spent up to now is       88.6 secs

     Computing kpt #:   241  of   434
     total cpu time spent up to now is       88.9 secs

     Computing kpt #:   242  of   434
     total cpu time spent up to now is       89.2 secs

     Computing kpt #:   243  of   434
     total cpu time spent up to now is       89.5 secs

     Computing kpt #:   244  of   434
     total cpu time spent up to now is       90.0 secs

     Computing kpt #:   245  of   434
     total cpu time spent up to now is       90.3 secs

     Computing kpt #:   246  of   434
     total cpu time spent up to now is       90.6 secs

     Computing kpt #:   247  of   434
     total cpu time spent up to now is       90.9 secs

     Computing kpt #:   248  of   434
     total cpu time spent up to now is       91.2 secs

     Computing kpt #:   249  of   434
     total cpu time spent up to now is       91.6 secs

     Computing kpt #:   250  of   434
     total cpu time spent up to now is       91.9 secs

     Computing kpt #:   251  of   434
     total cpu time spent up to now is       92.2 secs

     Computing kpt #:   252  of   434
     total cpu time spent up to now is       92.5 secs

     Computing kpt #:   253  of   434
     total cpu time spent up to now is       92.8 secs

     Computing kpt #:   254  of   434
     total cpu time spent up to now is       93.1 secs

     Computing kpt #:   255  of   434
     total cpu time spent up to now is       93.4 secs

     Computing kpt #:   256  of   434
     total cpu time spent up to now is       93.8 secs

     Computing kpt #:   257  of   434
     total cpu time spent up to now is       94.1 secs

     Computing kpt #:   258  of   434
     total cpu time spent up to now is       94.4 secs

     Computing kpt #:   259  of   434
     total cpu time spent up to now is       94.7 secs

     Computing kpt #:   260  of   434
     total cpu time spent up to now is       95.0 secs

     Computing kpt #:   261  of   434
     total cpu time spent up to now is       95.4 secs

     Computing kpt #:   262  of   434
     total cpu time spent up to now is       95.7 secs

     Computing kpt #:   263  of   434
     total cpu time spent up to now is       96.0 secs

     Computing kpt #:   264  of   434
     total cpu time spent up to now is       96.3 secs

     Computing kpt #:   265  of   434
     total cpu time spent up to now is       96.6 secs

     Computing kpt #:   266  of   434
     total cpu time spent up to now is       96.9 secs

     Computing kpt #:   267  of   434
     total cpu time spent up to now is       97.3 secs

     Computing kpt #:   268  of   434
     total cpu time spent up to now is       97.6 secs

     Computing kpt #:   269  of   434
     total cpu time spent up to now is       98.0 secs

     Computing kpt #:   270  of   434
     total cpu time spent up to now is       98.3 secs

     Computing kpt #:   271  of   434
     total cpu time spent up to now is       98.6 secs

     Computing kpt #:   272  of   434
     total cpu time spent up to now is       98.9 secs

     Computing kpt #:   273  of   434
     total cpu time spent up to now is       99.2 secs

     Computing kpt #:   274  of   434
     total cpu time spent up to now is       99.5 secs

     Computing kpt #:   275  of   434
     total cpu time spent up to now is       99.8 secs

     Computing kpt #:   276  of   434
     total cpu time spent up to now is      100.1 secs

     Computing kpt #:   277  of   434
     total cpu time spent up to now is      100.5 secs

     Computing kpt #:   278  of   434
     total cpu time spent up to now is      100.8 secs

     Computing kpt #:   279  of   434
     total cpu time spent up to now is      101.1 secs

     Computing kpt #:   280  of   434
     total cpu time spent up to now is      101.4 secs

     Computing kpt #:   281  of   434
     total cpu time spent up to now is      101.7 secs

     Computing kpt #:   282  of   434
     total cpu time spent up to now is      102.0 secs

     Computing kpt #:   283  of   434
     total cpu time spent up to now is      102.3 secs

     Computing kpt #:   284  of   434
     total cpu time spent up to now is      102.6 secs

     Computing kpt #:   285  of   434
     total cpu time spent up to now is      102.9 secs

     Computing kpt #:   286  of   434
     total cpu time spent up to now is      103.3 secs

     Computing kpt #:   287  of   434
     total cpu time spent up to now is      103.6 secs

     Computing kpt #:   288  of   434
     total cpu time spent up to now is      103.9 secs

     Computing kpt #:   289  of   434
     total cpu time spent up to now is      104.2 secs

     Computing kpt #:   290  of   434
     total cpu time spent up to now is      104.5 secs

     Computing kpt #:   291  of   434
     total cpu time spent up to now is      104.8 secs

     Computing kpt #:   292  of   434
     total cpu time spent up to now is      108.4 secs

     Computing kpt #:   293  of   434
     total cpu time spent up to now is      109.7 secs

     Computing kpt #:   294  of   434
     total cpu time spent up to now is      110.0 secs

     Computing kpt #:   295  of   434
     total cpu time spent up to now is      110.3 secs

     Computing kpt #:   296  of   434
     total cpu time spent up to now is      110.6 secs

     Computing kpt #:   297  of   434
     total cpu time spent up to now is      111.0 secs

     Computing kpt #:   298  of   434
     total cpu time spent up to now is      111.3 secs

     Computing kpt #:   299  of   434
     total cpu time spent up to now is      111.6 secs

     Computing kpt #:   300  of   434
     total cpu time spent up to now is      111.9 secs

     Computing kpt #:   301  of   434
     total cpu time spent up to now is      112.3 secs

     Computing kpt #:   302  of   434
     total cpu time spent up to now is      112.6 secs

     Computing kpt #:   303  of   434
     total cpu time spent up to now is      112.9 secs

     Computing kpt #:   304  of   434
     total cpu time spent up to now is      113.2 secs

     Computing kpt #:   305  of   434
     total cpu time spent up to now is      113.5 secs

     Computing kpt #:   306  of   434
     total cpu time spent up to now is      113.8 secs

     Computing kpt #:   307  of   434
     total cpu time spent up to now is      114.1 secs

     Computing kpt #:   308  of   434
     total cpu time spent up to now is      114.5 secs

     Computing kpt #:   309  of   434
     total cpu time spent up to now is      114.8 secs

     Computing kpt #:   310  of   434
     total cpu time spent up to now is      115.1 secs

     Computing kpt #:   311  of   434
     total cpu time spent up to now is      115.4 secs

     Computing kpt #:   312  of   434
     total cpu time spent up to now is      115.7 secs

     Computing kpt #:   313  of   434
     total cpu time spent up to now is      116.0 secs

     Computing kpt #:   314  of   434
     total cpu time spent up to now is      116.3 secs

     Computing kpt #:   315  of   434
     total cpu time spent up to now is      116.6 secs

     Computing kpt #:   316  of   434
     total cpu time spent up to now is      117.0 secs

     Computing kpt #:   317  of   434
     total cpu time spent up to now is      117.3 secs

     Computing kpt #:   318  of   434
     total cpu time spent up to now is      117.6 secs

     Computing kpt #:   319  of   434
     total cpu time spent up to now is      117.9 secs

     Computing kpt #:   320  of   434
     total cpu time spent up to now is      118.2 secs

     Computing kpt #:   321  of   434
     total cpu time spent up to now is      118.5 secs

     Computing kpt #:   322  of   434
     total cpu time spent up to now is      118.8 secs

     Computing kpt #:   323  of   434
     total cpu time spent up to now is      119.2 secs

     Computing kpt #:   324  of   434
     total cpu time spent up to now is      119.5 secs

     Computing kpt #:   325  of   434
     total cpu time spent up to now is      119.8 secs

     Computing kpt #:   326  of   434
     total cpu time spent up to now is      120.1 secs

     Computing kpt #:   327  of   434
     total cpu time spent up to now is      120.4 secs

     Computing kpt #:   328  of   434
     total cpu time spent up to now is      120.7 secs

     Computing kpt #:   329  of   434
     total cpu time spent up to now is      121.0 secs

     Computing kpt #:   330  of   434
     total cpu time spent up to now is      121.3 secs

     Computing kpt #:   331  of   434
     total cpu time spent up to now is      121.6 secs

     Computing kpt #:   332  of   434
     total cpu time spent up to now is      122.0 secs

     Computing kpt #:   333  of   434
     total cpu time spent up to now is      122.3 secs

     Computing kpt #:   334  of   434
     total cpu time spent up to now is      122.6 secs

     Computing kpt #:   335  of   434
     total cpu time spent up to now is      122.9 secs

     Computing kpt #:   336  of   434
     total cpu time spent up to now is      123.3 secs

     Computing kpt #:   337  of   434
     total cpu time spent up to now is      123.6 secs

     Computing kpt #:   338  of   434
     total cpu time spent up to now is      123.9 secs

     Computing kpt #:   339  of   434
     total cpu time spent up to now is      124.2 secs

     Computing kpt #:   340  of   434
     total cpu time spent up to now is      124.5 secs

     Computing kpt #:   341  of   434
     total cpu time spent up to now is      124.8 secs

     Computing kpt #:   342  of   434
     total cpu time spent up to now is      125.1 secs

     Computing kpt #:   343  of   434
     total cpu time spent up to now is      125.4 secs

     Computing kpt #:   344  of   434
     total cpu time spent up to now is      125.7 secs

     Computing kpt #:   345  of   434
     total cpu time spent up to now is      126.1 secs

     Computing kpt #:   346  of   434
     total cpu time spent up to now is      126.4 secs

     Computing kpt #:   347  of   434
     total cpu time spent up to now is      126.7 secs

     Computing kpt #:   348  of   434
     total cpu time spent up to now is      127.0 secs

     Computing kpt #:   349  of   434
     total cpu time spent up to now is      127.3 secs

     Computing kpt #:   350  of   434
     total cpu time spent up to now is      127.6 secs

     Computing kpt #:   351  of   434
     total cpu time spent up to now is      127.9 secs

     Computing kpt #:   352  of   434
     total cpu time spent up to now is      128.2 secs

     Computing kpt #:   353  of   434
     total cpu time spent up to now is      128.6 secs

     Computing kpt #:   354  of   434
     total cpu time spent up to now is      128.9 secs

     Computing kpt #:   355  of   434
     total cpu time spent up to now is      129.2 secs

     Computing kpt #:   356  of   434
     total cpu time spent up to now is      129.5 secs

     Computing kpt #:   357  of   434
     total cpu time spent up to now is      129.8 secs

     Computing kpt #:   358  of   434
     total cpu time spent up to now is      130.1 secs

     Computing kpt #:   359  of   434
     total cpu time spent up to now is      130.5 secs

     Computing kpt #:   360  of   434
     total cpu time spent up to now is      130.8 secs

     Computing kpt #:   361  of   434
     total cpu time spent up to now is      131.1 secs

     Computing kpt #:   362  of   434
     total cpu time spent up to now is      131.4 secs

     Computing kpt #:   363  of   434
     total cpu time spent up to now is      131.7 secs

     Computing kpt #:   364  of   434
     total cpu time spent up to now is      132.0 secs

     Computing kpt #:   365  of   434
     total cpu time spent up to now is      132.3 secs

     Computing kpt #:   366  of   434
     total cpu time spent up to now is      132.7 secs

     Computing kpt #:   367  of   434
     total cpu time spent up to now is      133.0 secs

     Computing kpt #:   368  of   434
     total cpu time spent up to now is      133.3 secs

     Computing kpt #:   369  of   434
     total cpu time spent up to now is      133.6 secs

     Computing kpt #:   370  of   434
     total cpu time spent up to now is      133.9 secs

     Computing kpt #:   371  of   434
     total cpu time spent up to now is      134.2 secs

     Computing kpt #:   372  of   434
     total cpu time spent up to now is      134.6 secs

     Computing kpt #:   373  of   434
[...]
     5.4181   7.7303   8.7337   9.3014   9.6752  10.5563  10.6896  11.6420
    12.2306  12.5029  12.7133  13.2311  13.2936  13.7344  13.9989  14.1084
    14.6096  15.2750  15.4711  15.8487  16.4960  16.6369  18.0461  18.2525
    18.8294  19.2849  20.2389  20.4585  21.0859  21.9930  22.0658  23.1580
    23.2166  24.1075

     occupation numbers 
     1.0000   1.0000   1.0000   1.0000   1.0000   1.0000   1.0000   1.0000
     1.0000   1.0000   1.0000   1.0000   1.0000   0.0000   0.0000   0.0000
     0.0000   0.0000   0.0000   0.0000   0.0000   0.0000   0.0000   0.0000
     0.0000   0.0000   0.0000   0.0000   0.0000   0.0000   0.0000   0.0000
     0.0000   0.0000   0.0000   0.0000   0.0000   0.0000   0.0000   0.0000
     0.0000   0.0000   0.0000   0.0000   0.0000   0.0000   0.0000   0.0000
     0.0000   0.0000

          k = 0.2500 0.5052 0.0000 (  7045 PWs)   bands (ev):

   -59.8461 -34.4564 -34.3545 -34.2983 -11.6427 -11.6146  -5.1289  -4.8921
    -3.4611  -2.8742  -2.8593  -1.5690   0.1692   2.6130   3.5496   3.9155
     5.4603   7.5928   8.6964   9.4582   9.9499  10.7575  10.8594  11.6731
    12.2578  12.4343  12.5910  13.0103  13.2579  13.8040  14.0826  14.0918
    14.3876  15.0789  15.4086  15.7803  16.5418  16.6818  17.8251  18.0991
    18.7995  19.1675  20.2628  20.3000  20.9627  21.8314  22.0673  23.1302
    23.2534  24.3941

     occupation numbers 
     1.0000   1.0000   1.0000   1.0000   1.0000   1.0000   1.0000   1.0000
     1.0000   1.0000   1.0000   1.0000   1.0000   0.0000   0.0000   0.0000
     0.0000   0.0000   0.0000   0.0000   0.0000   0.0000   0.0000   0.0000
     0.0000   0.0000   0.0000   0.0000   0.0000   0.0000   0.0000   0.0000
     0.0000   0.0000   0.0000   0.0000   0.0000   0.0000   0.0000   0.0000
     0.0000   0.0000   0.0000   0.0000   0.0000   0.0000   0.0000   0.0000
     0.0000   0.0000

          k = 0.2500 0.5292 0.0000 (  7041 PWs)   bands (ev):

   -59.8450 -34.4564 -34.3529 -34.3070 -11.6003 -11.5955  -5.1912  -4.8563
    -3.5617  -2.8836  -2.8086  -1.6438   0.2434   2.5572   3.5476   4.0109
     5.4921   7.4753   8.6702   9.5905  10.2253  10.9512  11.0285  11.5974
    12.1454  12.4193  12.4421  12.9316  13.2227  13.8565  14.0640  14.0825
    14.3129  14.9410  15.4003  15.7386  16.4489  16.8892  17.6248  17.9405
    18.7854  19.0701  20.0530  20.4180  20.8619  21.5687  22.1523  23.1298
    23.3155  24.5693

     occupation numbers 
     1.0000   1.0000   1.0000   1.0000   1.0000   1.0000   1.0000   1.0000
     1.0000   1.0000   1.0000   1.0000   1.0000   0.0000   0.0000   0.0000
     0.0000   0.0000   0.0000   0.0000   0.0000   0.0000   0.0000   0.0000
     0.0000   0.0000   0.0000   0.0000   0.0000   0.0000   0.0000   0.0000
     0.0000   0.0000   0.0000   0.0000   0.0000   0.0000   0.0000   0.0000
     0.0000   0.0000   0.0000   0.0000   0.0000   0.0000   0.0000   0.0000
     0.0000   0.0000

          k = 0.2500 0.5533 0.0000 (  7047 PWs)   bands (ev):

   -59.8449 -34.4564 -34.3519 -34.3127 -11.5838 -11.5743  -5.2292  -4.8292
    -3.6323  -2.8861  -2.7731  -1.6941   0.2940   2.5161   3.5460   4.0746
     5.5118   7.3961   8.6558   9.6825  10.4491  11.1217  11.1956  11.4710
    11.8537  12.4084  12.4890  12.8883  13.1633  13.8947  14.0349  14.0744
    14.2881  14.8631  15.4234  15.7257  16.3835  17.0745  17.4796  17.7963
    18.7782  19.0067  19.8878  20.5651  20.8062  21.3311  22.2095  23.1348
    23.3682  24.6298

     occupation numbers 
     1.0000   1.0000   1.0000   1.0000   1.0000   1.0000   1.0000   1.0000
     1.0000   1.0000   1.0000   1.0000   1.0000   0.0000   0.0000   0.0000
     0.0000   0.0000   0.0000   0.0000   0.0000   0.0000   0.0000   0.0000
     0.0000   0.0000   0.0000   0.0000   0.0000   0.0000   0.0000   0.0000
     0.0000   0.0000   0.0000   0.0000   0.0000   0.0000   0.0000   0.0000
     0.0000   0.0000   0.0000   0.0000   0.0000   0.0000   0.0000   0.0000
     0.0000   0.0000

          k = 0.2500 0.5774 0.0000 (  7045 PWs)   bands (ev):

   -59.8446 -34.4563 -34.3517 -34.3145 -11.5798 -11.5655  -5.2419  -4.8189
    -3.6577  -2.8865  -2.7601  -1.7120   0.3121   2.5010   3.5454   4.0971
     5.5184   7.3682   8.6514   9.7160  10.5402  11.2223  11.3101  11.3810
    11.6736  12.4151  12.5155  12.8699  13.1280  13.9136  14.0394  14.0646
    14.2699  14.8385  15.4380  15.7247  16.3604  17.1609  17.4256  17.7261
    18.7760  18.9850  19.8249  20.6499  20.7889  21.2160  22.2291  23.1372
    23.3885  24.6414

     occupation numbers 
     1.0000   1.0000   1.0000   1.0000   1.0000   1.0000   1.0000   1.0000
     1.0000   1.0000   1.0000   1.0000   1.0000   0.0000   0.0000   0.0000
     0.0000   0.0000   0.0000   0.0000   0.0000   0.0000   0.0000   0.0000
     0.0000   0.0000   0.0000   0.0000   0.0000   0.0000   0.0000   0.0000
     0.0000   0.0000   0.0000   0.0000   0.0000   0.0000   0.0000   0.0000
     0.0000   0.0000   0.0000   0.0000   0.0000   0.0000   0.0000   0.0000
     0.0000   0.0000

          k = 0.2708 0.4691 0.0000 (  7043 PWs)   bands (ev):

   -59.8470 -34.4529 -34.3567 -34.2897 -11.6994 -11.6391  -5.0483  -4.9103
    -3.3080  -2.9190  -2.9170  -1.4760   0.0824   2.6616   3.5339   3.8059
     5.4355   7.7854   8.6716   9.3013   9.6671  10.5714  10.7035  11.7024
    12.3074  12.5518  12.7460  13.2229  13.4295  13.7054  13.8601  13.9152
    14.7440  15.3180  15.3365  15.7357  16.4806  16.6342  18.1670  18.2567
    18.6741  19.2728  20.2345  20.4754  21.0881  21.9353  22.2091  23.0177
    23.2486  24.1297

     occupation numbers 
     1.0000   1.0000   1.0000   1.0000   1.0000   1.0000   1.0000   1.0000
     1.0000   1.0000   1.0000   1.0000   1.0000   0.0000   0.0000   0.0000
     0.0000   0.0000   0.0000   0.0000   0.0000   0.0000   0.0000   0.0000
     0.0000   0.0000   0.0000   0.0000   0.0000   0.0000   0.0000   0.0000
     0.0000   0.0000   0.0000   0.0000   0.0000   0.0000   0.0000   0.0000
     0.0000   0.0000   0.0000   0.0000   0.0000   0.0000   0.0000   0.0000
     0.0000   0.0000

          k = 0.2708 0.4932 0.0000 (  7047 PWs)   bands (ev):

   -59.8461 -34.4512 -34.3543 -34.3047 -11.6392 -11.6114  -5.1408  -4.8523
    -3.4005  -2.9954  -2.8557  -1.5692   0.1732   2.5952   3.5176   3.9278
     5.4957   7.6942   8.5682   9.4586   9.9451  10.7906  10.8940  11.8295
    12.3938  12.4671  12.7369  13.1523  13.2346  13.5829  13.8833  13.9413
    14.5805  15.1485  15.1551  15.5732  16.5470  16.6558  17.9978  18.1143
    18.5430  19.1320  20.2826  20.2969  20.9388  21.9798  22.0808  22.8648
    23.3421  24.4697

     occupation numbers 
     1.0000   1.0000   1.0000   1.0000   1.0000   1.0000   1.0000   1.0000
     1.0000   1.0000   1.0000   1.0000   1.0000   0.0000   0.0000   0.0000
     0.0000   0.0000   0.0000   0.0000   0.0000   0.0000   0.0000   0.0000
     0.0000   0.0000   0.0000   0.0000   0.0000   0.0000   0.0000   0.0000
     0.0000   0.0000   0.0000   0.0000   0.0000   0.0000   0.0000   0.0000
     0.0000   0.0000   0.0000   0.0000   0.0000   0.0000   0.0000   0.0000
     0.0000   0.0000

          k = 0.2708 0.5172 0.0000 (  7041 PWs)   bands (ev):

   -59.8449 -34.4486 -34.3525 -34.3171 -11.5926 -11.5898  -5.2122  -4.7908
    -3.5212  -3.0233  -2.7972  -1.6523   0.2567   2.5249   3.5037   4.0353
     5.5444   7.6029   8.4904   9.5954  10.2366  11.0080  11.0855  11.8424
    12.3859  12.4173  12.6133  13.0368  13.1584  13.5633  13.8986  13.9895
    14.4199  14.9768  15.1102  15.4612  16.4710  16.8486  17.7811  17.9776
    18.4821  18.9977  20.0579  20.4239  20.8026  21.8468  22.0546  22.8077
    23.4727  24.7226

     occupation numbers 
     1.0000   1.0000   1.0000   1.0000   1.0000   1.0000   1.0000   1.0000
     1.0000   1.0000   1.0000   1.0000   1.0000   0.0000   0.0000   0.0000
     0.0000   0.0000   0.0000   0.0000   0.0000   0.0000   0.0000   0.0000
     0.0000   0.0000   0.0000   0.0000   0.0000   0.0000   0.0000   0.0000
     0.0000   0.0000   0.0000   0.0000   0.0000   0.0000   0.0000   0.0000
     0.0000   0.0000   0.0000   0.0000   0.0000   0.0000   0.0000   0.0000
     0.0000   0.0000

          k = 0.2708 0.5413 0.0000 (  7043 PWs)   bands (ev):

   -59.8444 -34.4461 -34.3513 -34.3263 -11.5749 -11.5607  -5.2607  -4.7357
    -3.6278  -3.0317  -2.7497  -1.7166   0.3220   2.4660   3.4937   4.1159
     5.5785   7.5279   8.4426   9.7009  10.5051  11.2072  11.2681  11.7498
    12.1474  12.4296  12.5693  12.9641  13.1760  13.5461  13.8676  14.0940
    14.2608  14.8467  15.1297  15.4000  16.4284  17.0246  17.5824  17.8595
    18.4529  18.8894  19.8555  20.5969  20.7170  21.5823  22.1139  22.7931
    23.5914  24.8494

     occupation numbers 
     1.0000   1.0000   1.0000   1.0000   1.0000   1.0000   1.0000   1.0000
     1.0000   1.0000   1.0000   1.0000   1.0000   0.0000   0.0000   0.0000
     0.0000   0.0000   0.0000   0.0000   0.0000   0.0000   0.0000   0.0000
     0.0000   0.0000   0.0000   0.0000   0.0000   0.0000   0.0000   0.0000
     0.0000   0.0000   0.0000   0.0000   0.0000   0.0000   0.0000   0.0000
     0.0000   0.0000   0.0000   0.0000   0.0000   0.0000   0.0000   0.0000
     0.0000   0.0000

          k = 0.2708 0.5653 0.0000 (  7049 PWs)   bands (ev):

   -59.8445 -34.4446 -34.3508 -34.3315 -11.5673 -11.5445  -5.2853  -4.7017
    -3.6902  -3.0338  -2.7226  -1.7522   0.3582   2.4322   3.4884   4.1593
     5.5960   7.4855   8.4204   9.7597  10.6830  11.3606  11.4324  11.6351
    11.8785  12.4555  12.5720  12.9349  13.1652  13.5361  13.9262  14.1065
    14.1568  14.7735  15.1543  15.3769  16.4175  17.1414  17.4604  17.7802
    18.4402  18.8285  19.7353  20.6773  20.7609  21.3692  22.1450  22.7905
    23.6620  24.8908

     occupation numbers 
     1.0000   1.0000   1.0000   1.0000   1.0000   1.0000   1.0000   1.0000
     1.0000   1.0000   1.0000   1.0000   1.0000   0.0000   0.0000   0.0000
     0.0000   0.0000   0.0000   0.0000   0.0000   0.0000   0.0000   0.0000
     0.0000   0.0000   0.0000   0.0000   0.0000   0.0000   0.0000   0.0000
     0.0000   0.0000   0.0000   0.0000   0.0000   0.0000   0.0000   0.0000
     0.0000   0.0000   0.0000   0.0000   0.0000   0.0000   0.0000   0.0000
     0.0000   0.0000

          k = 0.2917 0.5052 0.0000 (  7043 PWs)   bands (ev):

   -59.8449 -34.4455 -34.3524 -34.3209 -11.5900 -11.5878  -5.2192  -4.7670
    -3.5011  -3.0784  -2.7933  -1.6552   0.2613   2.5138   3.4889   4.0435
     5.5623   7.6600   8.4159   9.5971  10.2392  11.0249  11.1061  11.9526
    12.4007  12.4712  12.7111  13.1211  13.1995  13.2849  13.8221  13.9804
    14.5432  14.9408  15.0080  15.3445  16.4812  16.8329  17.8930  17.9869
    18.3209  18.9773  20.0633  20.4260  20.7761  22.0044  22.0233  22.6337
    23.5320  24.7591

     occupation numbers 
     1.0000   1.0000   1.0000   1.0000   1.0000   1.0000   1.0000   1.0000
     1.0000   1.0000   1.0000   1.0000   1.0000   0.0000   0.0000   0.0000
     0.0000   0.0000   0.0000   0.0000   0.0000   0.0000   0.0000   0.0000
     0.0000   0.0000   0.0000   0.0000   0.0000   0.0000   0.0000   0.0000
     0.0000   0.0000   0.0000   0.0000   0.0000   0.0000   0.0000   0.0000
     0.0000   0.0000   0.0000   0.0000   0.0000   0.0000   0.0000   0.0000
     0.0000   0.0000

          k = 0.2917 0.5292 0.0000 (  7045 PWs)   bands (ev):

   -59.8444 -34.4398 -34.3509 -34.3345 -11.5704 -11.5539  -5.2768  -4.6806
    -3.6268  -3.1117  -2.7371  -1.7286   0.3370   2.4391   3.4670   4.1369
     5.6132   7.6284   8.3011   9.7100  10.5274  11.2420  11.3132  11.9719
    12.3504  12.3808  12.6425  13.0546  13.1863  13.2443  13.6978  14.1267
    14.3918  14.8613  14.8839  15.1916  16.4613  16.9892  17.7187  17.8907
    18.2021  18.8362  19.8464  20.6111  20.6553  21.8107  22.0718  22.5181
    23.7273  24.8246

     occupation numbers 
     1.0000   1.0000   1.0000   1.0000   1.0000   1.0000   1.0000   1.0000
     1.0000   1.0000   1.0000   1.0000   1.0000   0.0000   0.0000   0.0000
     0.0000   0.0000   0.0000   0.0000   0.0000   0.0000   0.0000   0.0000
     0.0000   0.0000   0.0000   0.0000   0.0000   0.0000   0.0000   0.0000
     0.0000   0.0000   0.0000   0.0000   0.0000   0.0000   0.0000   0.0000
     0.0000   0.0000   0.0000   0.0000   0.0000   0.0000   0.0000   0.0000
     0.0000   0.0000

          k = 0.2917 0.5533 0.0000 (  7041 PWs)   bands (ev):

   -59.8437 -34.4350 -34.3501 -34.3440 -11.5596 -11.5318  -5.3119  -4.6101
    -3.7301  -3.1234  -2.6968  -1.7794   0.3890   2.3862   3.4533   4.1980
     5.6451   7.6042   8.2322   9.7862  10.7625  11.4130  11.5081  11.9113
    12.1311  12.3505  12.5854  13.0442  13.2228  13.2296  13.6829  14.1882
    14.2557  14.7412  14.8922  15.1055  16.4824  17.0974  17.5493  17.8356
    18.1533  18.7334  19.6872  20.5846  20.8208  21.5679  22.1055  22.4790
    23.8794  24.8288

     occupation numbers 
     1.0000   1.0000   1.0000   1.0000   1.0000   1.0000   1.0000   1.0000
     1.0000   1.0000   1.0000   1.0000   1.0000   0.0000   0.0000   0.0000
     0.0000   0.0000   0.0000   0.0000   0.0000   0.0000   0.0000   0.0000
     0.0000   0.0000   0.0000   0.0000   0.0000   0.0000   0.0000   0.0000
     0.0000   0.0000   0.0000   0.0000   0.0000   0.0000   0.0000   0.0000
     0.0000   0.0000   0.0000   0.0000   0.0000   0.0000   0.0000   0.0000
     0.0000   0.0000

          k = 0.2917 0.5774 0.0000 (  7041 PWs)   bands (ev):

   -59.8435 -34.4331 -34.3498 -34.3475 -11.5560 -11.5244  -5.3237  -4.5814
    -3.7710  -3.1263  -2.6820  -1.7977   0.4076   2.3671   3.4487   4.2192
     5.6559   7.5949   8.2096   9.8135  10.8598  11.4858  11.6360  11.8696
    11.9576  12.3593  12.5639  13.0562  13.2115  13.2213  13.7462  14.0657
    14.3113  14.6908  14.8985  15.0770  16.5005  17.1360  17.4782  17.8188
    18.1399  18.6951  19.6286  20.5615  20.9476  21.4264  22.1173  22.4702
    23.9393  24.8165

     occupation numbers 
     1.0000   1.0000   1.0000   1.0000   1.0000   1.0000   1.0000   1.0000
     1.0000   1.0000   1.0000   1.0000   1.0000   0.0000   0.0000   0.0000
     0.0000   0.0000   0.0000   0.0000   0.0000   0.0000   0.0000   0.0000
     0.0000   0.0000   0.0000   0.0000   0.0000   0.0000   0.0000   0.0000
     0.0000   0.0000   0.0000   0.0000   0.0000   0.0000   0.0000   0.0000
     0.0000   0.0000   0.0000   0.0000   0.0000   0.0000   0.0000   0.0000
     0.0000   0.0000

          k = 0.3125 0.5413 0.0000 (  7041 PWs)   bands (ev):

   -59.8436 -34.4310 -34.3499 -34.3490 -11.5570 -11.5276  -5.3208  -4.5739
    -3.7498  -3.1527  -2.6876  -1.7891   0.3999   2.3701   3.4415   4.2111
     5.6619   7.6658   8.1473   9.7952  10.7869  11.4308  11.5366  12.0585
    12.2730  12.2915  12.5437  13.0011  13.1777  13.2558  13.5822  14.2554
    14.2996  14.7362  14.7635  14.9904  16.5086  17.0768  17.6245  17.8576
    18.0093  18.7019  19.6731  20.5481  20.8384  21.6892  22.0944  22.3221
    23.9708  24.7787

     occupation numbers 
     1.0000   1.0000   1.0000   1.0000   1.0000   1.0000   1.0000   1.0000
     1.0000   1.0000   1.0000   1.0000   1.0000   0.0000   0.0000   0.0000
     0.0000   0.0000   0.0000   0.0000   0.0000   0.0000   0.0000   0.0000
     0.0000   0.0000   0.0000   0.0000   0.0000   0.0000   0.0000   0.0000
     0.0000   0.0000   0.0000   0.0000   0.0000   0.0000   0.0000   0.0000
     0.0000   0.0000   0.0000   0.0000   0.0000   0.0000   0.0000   0.0000
     0.0000   0.0000

          k = 0.3125 0.5653 0.0000 (  7033 PWs)   bands (ev):

   -59.8428 -34.4248 -34.3579 -34.3494 -11.5502 -11.5143  -5.3432  -4.4993
    -3.8383  -3.1679  -2.6589  -1.8232   0.4348   2.3313   3.4285   4.2503
     5.6871   7.7005   8.0523   9.8414  10.9527  11.5391  11.7476  12.0773
    12.1086  12.2611  12.4486  12.9510  13.2089  13.2271  13.6805  14.0687
    14.4455  14.6402  14.7225  14.8625  16.5663  17.1113  17.5298  17.8612
    17.9275  18.6218  19.5752  20.4924  21.0583  21.5064  22.1087  22.2408
    24.1495  24.6842

     occupation numbers 
     1.0000   1.0000   1.0000   1.0000   1.0000   1.0000   1.0000   1.0000
     1.0000   1.0000   1.0000   1.0000   1.0000   0.0000   0.0000   0.0000
     0.0000   0.0000   0.0000   0.0000   0.0000   0.0000   0.0000   0.0000
     0.0000   0.0000   0.0000   0.0000   0.0000   0.0000   0.0000   0.0000
     0.0000   0.0000   0.0000   0.0000   0.0000   0.0000   0.0000   0.0000
     0.0000   0.0000   0.0000   0.0000   0.0000   0.0000   0.0000   0.0000
     0.0000   0.0000

          k = 0.3333 0.5774 0.0000 (  7047 PWs)   bands (ev):

   -59.8436 -34.4205 -34.3640 -34.3493 -11.5470 -11.5084  -5.3537  -4.4494
    -3.8896  -3.1806  -2.6450  -1.8392   0.4512   2.3115   3.4200   4.2683
     5.7014   7.7713   7.9529   9.8605  11.0241  11.5810  11.9180  12.0546
    12.1607  12.2210  12.3410  12.8863  13.1497  13.2812  13.7981  13.9453
    14.5733  14.6474  14.6620  14.6701  16.6087  17.1083  17.5242  17.8382
    17.8809  18.5797  19.5356  20.4592  21.2110  21.4241  22.1111  22.1496
    24.3202  24.5494

     occupation numbers 
     1.0000   1.0000   1.0000   1.0000   1.0000   1.0000   1.0000   1.0000
     1.0000   1.0000   1.0000   1.0000   1.0000   0.0000   0.0000   0.0000
     0.0000   0.0000   0.0000   0.0000   0.0000   0.0000   0.0000   0.0000
     0.0000   0.0000   0.0000   0.0000   0.0000   0.0000   0.0000   0.0000
     0.0000   0.0000   0.0000   0.0000   0.0000   0.0000   0.0000   0.0000
     0.0000   0.0000   0.0000   0.0000   0.0000   0.0000   0.0000   0.0000
     0.0000   0.0000

     the Fermi energy is     1.9503 ev
     (compare with:     1.6414 eV, computed in scf)

     Writing output data file run_output/MoS2.save/

     init_run     :      1.23s CPU      1.62s WALL (       1 calls)
     electrons    :    146.56s CPU    156.89s WALL (       1 calls)

     Called by init_run:
     wfcinit      :      0.00s CPU      0.01s WALL (       1 calls)
     wfcinit:atom :      0.02s CPU      0.02s WALL (     434 calls)
     wfcinit:wfcr :      7.82s CPU      7.93s WALL (     434 calls)
     potinit      :      0.02s CPU      0.03s WALL (       1 calls)
     hinit0       :      0.05s CPU      0.05s WALL (       1 calls)

     Called by electrons:
     c_bands      :    146.52s CPU    156.82s WALL (       1 calls)
     v_of_rho     :      0.00s CPU      0.00s WALL (       1 calls)
     v_h          :      0.00s CPU      0.00s WALL (       1 calls)
     v_xc         :      0.00s CPU      0.00s WALL (       1 calls)

     Called by c_bands:
     init_us_2    :      0.02s CPU      0.02s WALL (     434 calls)
     cegterg      :    130.13s CPU    131.04s WALL (     450 calls)

     Called by sum_band:

     Called by *egterg:
     cdiaghg      :     68.93s CPU     68.95s WALL (    6339 calls)
     cegterg:over :      9.52s CPU      9.62s WALL (    5905 calls)
     cegterg:upda :      3.38s CPU      3.44s WALL (    5905 calls)
     cegterg:last :      2.37s CPU      2.36s WALL (    1318 calls)
     h_psi        :     48.41s CPU     49.22s WALL (    6789 calls)
     g_psi        :      0.05s CPU      0.07s WALL (    5905 calls)

     Called by h_psi:
     h_psi:calbec :      2.27s CPU      2.31s WALL (    6789 calls)
     vloc_psi     :     45.38s CPU     46.19s WALL (    6789 calls)
     add_vuspsi   :      0.70s CPU      0.67s WALL (    6789 calls)

     General routines
     calbec       :      2.26s CPU      2.30s WALL (    6789 calls)
     fft          :      0.01s CPU      0.01s WALL (       5 calls)
     fftw         :     44.71s CPU     45.45s WALL (  363652 calls)
     davcio       :      0.03s CPU     11.89s WALL (     868 calls)

     Parallel routines
     fft_scatt_xy :      0.87s CPU      1.01s WALL (  363657 calls)
     fft_scatt_yz :     36.12s CPU     36.14s WALL (  363657 calls)

     PWSCF        :   4m19.04s CPU   5m12.43s WALL


   This run was terminated on:  19:27: 1   6May2021            

=------------------------------------------------------------------------------=
   JOB DONE.
=------------------------------------------------------------------------------=
2 total processes killed (some possibly by mpirun during cleanup)
