
     Program PWSCF v.6.7MaX starts on 23Feb2021 at 18:21: 5 

     This program is part of the open-source Quantum ESPRESSO suite
     for quantum simulation of materials; please cite
         "P. Giannozzi et al., J. Phys.:Condens. Matter 21 395502 (2009);
         "P. Giannozzi et al., J. Phys.:Condens. Matter 29 465901 (2017);
          URL http://www.quantum-espresso.org", 
     in publications or presentations arising from this work. More details at
     http://www.quantum-espresso.org/quote

     Parallel version (MPI), running on     1 processors

     MPI processes distributed on     1 nodes
     Waiting for input...
     Reading input from standard input
     Message from routine read_cards :
     DEPRECATED: no units specified in ATOMIC_POSITIONS card
     Message from routine read_cards :
     ATOMIC_POSITIONS: units set to alat

     Current dimensions of program PWSCF are:
     Max number of different atomic species (ntypx) = 10
     Max number of k-points (npk) =  40000
     Max angular momentum in pseudopotentials (lmaxx) =  3

     Atomic positions and unit cell read from directory:
     run_output/Si.save/


     Subspace diagonalization in iterative solution of the eigenvalue problem:
     a serial algorithm will be used


     G-vector sticks info
     --------------------
     sticks:   dense  smooth     PW     G-vecs:    dense   smooth      PW
     Sum         211     211     85                 2085     2085     459



     bravais-lattice index     =            2
     lattice parameter (alat)  =      10.1830  a.u.
     unit-cell volume          =     263.9777 (a.u.)^3
     number of atoms/cell      =            2
     number of atomic types    =            1
     number of electrons       =         8.00
     number of Kohn-Sham states=           25
     kinetic-energy cutoff     =      15.0000  Ry
     charge density cutoff     =      60.0000  Ry
     Exchange-correlation=  SLA  PZ   NOGX NOGC
                           (   1   1   0   0   0   0   0)

     celldm(1)=  10.183000  celldm(2)=   0.000000  celldm(3)=   0.000000
     celldm(4)=   0.000000  celldm(5)=   0.000000  celldm(6)=   0.000000

     crystal axes: (cart. coord. in units of alat)
               a(1) = (  -0.500000   0.000000   0.500000 )  
               a(2) = (   0.000000   0.500000   0.500000 )  
               a(3) = (  -0.500000   0.500000   0.000000 )  

     reciprocal axes: (cart. coord. in units 2 pi/alat)
               b(1) = ( -1.000000 -1.000000  1.000000 )  
               b(2) = (  1.000000  1.000000  1.000000 )  
               b(3) = ( -1.000000  1.000000 -1.000000 )  


     PseudoPot. # 1 for Si read from file:
     PPs/Si.vbc.UPF
     MD5 check sum: 7974b67c806a44bbea7c2da40a3c413a
     Pseudo is Norm-conserving, Zval =  4.0
     Generated by new atomic code, or converted to UPF format
     Using radial grid of  431 points,  2 beta functions with: 
                l(1) =   0
                l(2) =   1

     atomic species   valence    mass     pseudopotential
        Si             4.00    28.08600     Si( 1.00)

     24 Sym. Ops. (no inversion) found


                                    s                        frac. trans.

      isym =  1     identity                                     

 cryst.   s( 1) = (     1          0          0      )
                  (     0          1          0      )
                  (     0          0          1      )

 cart.    s( 1) = (  1.0000000  0.0000000  0.0000000 )
                  (  0.0000000  1.0000000  0.0000000 )
                  (  0.0000000  0.0000000  1.0000000 )


      isym =  2     180 deg rotation - cart. axis [0,0,1]        

 cryst.   s( 2) = (     0          1         -1      )
                  (     1          0         -1      )
                  (     0          0         -1      )

 cart.    s( 2) = ( -1.0000000  0.0000000  0.0000000 )
                  (  0.0000000 -1.0000000  0.0000000 )
                  (  0.0000000  0.0000000  1.0000000 )


      isym =  3     180 deg rotation - cart. axis [0,1,0]        

 cryst.   s( 3) = (    -1          0          0      )
                  (    -1          0          1      )
                  (    -1          1          0      )

 cart.    s( 3) = ( -1.0000000  0.0000000  0.0000000 )
                  (  0.0000000  1.0000000  0.0000000 )
                  (  0.0000000  0.0000000 -1.0000000 )


      isym =  4     180 deg rotation - cart. axis [1,0,0]        

 cryst.   s( 4) = (     0         -1          1      )
                  (     0         -1          0      )
                  (     1         -1          0      )

 cart.    s( 4) = (  1.0000000  0.0000000  0.0000000 )
                  (  0.0000000 -1.0000000  0.0000000 )
                  (  0.0000000  0.0000000 -1.0000000 )


      isym =  5     120 deg rotation - cart. axis [-1,-1,-1]     

 cryst.   s( 5) = (    -1          0          1      )
                  (    -1          1          0      )
                  (    -1          0          0      )

 cart.    s( 5) = (  0.0000000  1.0000000  0.0000000 )
                  (  0.0000000  0.0000000  1.0000000 )
                  (  1.0000000  0.0000000  0.0000000 )


      isym =  6     120 deg rotation - cart. axis [-1,1,1]       

 cryst.   s( 6) = (     0          1          0      )
                  (     0          0          1      )
                  (     1          0          0      )

 cart.    s( 6) = (  0.0000000 -1.0000000  0.0000000 )
                  (  0.0000000  0.0000000  1.0000000 )
                  ( -1.0000000  0.0000000  0.0000000 )


      isym =  7     120 deg rotation - cart. axis [1,1,-1]       

 cryst.   s( 7) = (     1          0         -1      )
                  (     0          0         -1      )
                  (     0          1         -1      )

 cart.    s( 7) = (  0.0000000  1.0000000  0.0000000 )
                  (  0.0000000  0.0000000 -1.0000000 )
                  ( -1.0000000  0.0000000  0.0000000 )


      isym =  8     120 deg rotation - cart. axis [1,-1,1]       

 cryst.   s( 8) = (     0         -1          0      )
                  (     1         -1          0      )
                  (     0         -1          1      )

 cart.    s( 8) = (  0.0000000 -1.0000000  0.0000000 )
                  (  0.0000000  0.0000000 -1.0000000 )
                  (  1.0000000  0.0000000  0.0000000 )


      isym =  9     120 deg rotation - cart. axis [1,1,1]        

 cryst.   s( 9) = (     0          0         -1      )
                  (     0          1         -1      )
                  (     1          0         -1      )

 cart.    s( 9) = (  0.0000000  0.0000000  1.0000000 )
                  (  1.0000000  0.0000000  0.0000000 )
                  (  0.0000000  1.0000000  0.0000000 )


      isym = 10     120 deg rotation - cart. axis [-1,1,-1]      

 cryst.   s(10) = (    -1          1          0      )
                  (    -1          0          0      )
                  (    -1          0          1      )

 cart.    s(10) = (  0.0000000  0.0000000  1.0000000 )
                  ( -1.0000000  0.0000000  0.0000000 )
                  (  0.0000000 -1.0000000  0.0000000 )


      isym = 11     120 deg rotation - cart. axis [1,-1,-1]      

 cryst.   s(11) = (     0          0          1      )
                  (     1          0          0      )
                  (     0          1          0      )

 cart.    s(11) = (  0.0000000  0.0000000 -1.0000000 )
                  ( -1.0000000  0.0000000  0.0000000 )
                  (  0.0000000  1.0000000  0.0000000 )


      isym = 12     120 deg rotation - cart. axis [-1,-1,1]      

 cryst.   s(12) = (     1         -1          0      )
                  (     0         -1          1      )
                  (     0         -1          0      )

 cart.    s(12) = (  0.0000000  0.0000000 -1.0000000 )
                  (  1.0000000  0.0000000  0.0000000 )
                  (  0.0000000 -1.0000000  0.0000000 )


      isym = 13     inv. 180 deg rotation - cart. axis [1,1,0]   

 cryst.   s(13) = (     0          1          0      )
                  (     1          0          0      )
                  (     0          0          1      )

 cart.    s(13) = (  0.0000000 -1.0000000  0.0000000 )
                  ( -1.0000000  0.0000000  0.0000000 )
                  (  0.0000000  0.0000000  1.0000000 )


      isym = 14     inv. 180 deg rotation - cart. axis [1,-1,0]  

 cryst.   s(14) = (     1          0         -1      )
                  (     0          1         -1      )
                  (     0          0         -1      )

 cart.    s(14) = (  0.0000000  1.0000000  0.0000000 )
                  (  1.0000000  0.0000000  0.0000000 )
                  (  0.0000000  0.0000000  1.0000000 )


      isym = 15     inv.  90 deg rotation - cart. axis [0,0,-1]  

 cryst.   s(15) = (     0         -1          0      )
                  (     0         -1          1      )
                  (     1         -1          0      )

 cart.    s(15) = (  0.0000000 -1.0000000  0.0000000 )
                  (  1.0000000  0.0000000  0.0000000 )
                  (  0.0000000  0.0000000 -1.0000000 )


      isym = 16     inv.  90 deg rotation - cart. axis [0,0,1]   

 cryst.   s(16) = (    -1          0          1      )
                  (    -1          0          0      )
                  (    -1          1          0      )

 cart.    s(16) = (  0.0000000  1.0000000  0.0000000 )
                  ( -1.0000000  0.0000000  0.0000000 )
                  (  0.0000000  0.0000000 -1.0000000 )


      isym = 17     inv. 180 deg rotation - cart. axis [1,0,1]   

 cryst.   s(17) = (     1          0          0      )
                  (     0          0          1      )
                  (     0          1          0      )

 cart.    s(17) = (  0.0000000  0.0000000 -1.0000000 )
                  (  0.0000000  1.0000000  0.0000000 )
                  ( -1.0000000  0.0000000  0.0000000 )


      isym = 18     inv. 180 deg rotation - cart. axis [-1,0,1]  

 cryst.   s(18) = (    -1          0          0      )
                  (    -1          1          0      )
                  (    -1          0          1      )

 cart.    s(18) = (  0.0000000  0.0000000  1.0000000 )
                  (  0.0000000  1.0000000  0.0000000 )
                  (  1.0000000  0.0000000  0.0000000 )


      isym = 19     inv.  90 deg rotation - cart. axis [0,1,0]   

 cryst.   s(19) = (     0         -1          1      )
                  (     1         -1          0      )
                  (     0         -1          0      )

 cart.    s(19) = (  0.0000000  0.0000000 -1.0000000 )
                  (  0.0000000 -1.0000000  0.0000000 )
                  (  1.0000000  0.0000000  0.0000000 )


      isym = 20     inv.  90 deg rotation - cart. axis [0,-1,0]  

 cryst.   s(20) = (     0          1         -1      )
                  (     0          0         -1      )
                  (     1          0         -1      )

 cart.    s(20) = (  0.0000000  0.0000000  1.0000000 )
                  (  0.0000000 -1.0000000  0.0000000 )
                  ( -1.0000000  0.0000000  0.0000000 )


      isym = 21     inv. 180 deg rotation - cart. axis [0,1,1]   

 cryst.   s(21) = (     1         -1          0      )
                  (     0         -1          0      )
                  (     0         -1          1      )

 cart.    s(21) = (  1.0000000  0.0000000  0.0000000 )
                  (  0.0000000  0.0000000 -1.0000000 )
                  (  0.0000000 -1.0000000  0.0000000 )


      isym = 22     inv. 180 deg rotation - cart. axis [0,1,-1]  

 cryst.   s(22) = (     0          0          1      )
                  (     0          1          0      )
                  (     1          0          0      )

 cart.    s(22) = (  1.0000000  0.0000000  0.0000000 )
                  (  0.0000000  0.0000000  1.0000000 )
                  (  0.0000000  1.0000000  0.0000000 )


      isym = 23     inv.  90 deg rotation - cart. axis [-1,0,0]  

 cryst.   s(23) = (     0          0         -1      )
                  (     1          0         -1      )
                  (     0          1         -1      )

 cart.    s(23) = ( -1.0000000  0.0000000  0.0000000 )
                  (  0.0000000  0.0000000 -1.0000000 )
                  (  0.0000000  1.0000000  0.0000000 )


      isym = 24     inv.  90 deg rotation - cart. axis [1,0,0]   

 cryst.   s(24) = (    -1          1          0      )
                  (    -1          0          1      )
                  (    -1          0          0      )

 cart.    s(24) = ( -1.0000000  0.0000000  0.0000000 )
                  (  0.0000000  0.0000000  1.0000000 )
                  (  0.0000000 -1.0000000  0.0000000 )


     point group T_d (-43m) 
     there are  5 classes
     the character table:

       E     8C3   3C2   6S4   6s_d 
A_1    1.00  1.00  1.00  1.00  1.00
A_2    1.00  1.00  1.00 -1.00 -1.00
E      2.00 -1.00  2.00  0.00  0.00
T_1    3.00  0.00 -1.00  1.00 -1.00
T_2    3.00  0.00 -1.00 -1.00  1.00

     the symmetry operations in each class and the name of the first element:

     E        1
          identity                                               
     8C3      5    7    8    6   12    9   10   11
          120 deg rotation - cart. axis [-1,-1,-1]               
     3C2      2    3    4
          180 deg rotation - cart. axis [0,0,1]                  
     6S4     15   16   20   19   23   24
          inv.  90 deg rotation - cart. axis [0,0,-1]            
     6s_d    13   14   17   18   21   22
          inv. 180 deg rotation - cart. axis [1,1,0]             

   Cartesian axes

     site n.     atom                  positions (alat units)
         1           Si  tau(   1) = (   0.0000000   0.0000000   0.0000000  )
         2           Si  tau(   2) = (   0.2500000   0.2500000   0.2500000  )

   Crystallographic axes

     site n.     atom                  positions (cryst. coord.)
         1           Si  tau(   1) = (  0.0000000  0.0000000  0.0000000  )
         2           Si  tau(   2) = ( -0.2500000  0.7500000 -0.2500000  )

     number of k points=   413
                       cart. coord. in units 2pi/alat
        k(    1) = (   0.0000000   0.0000000   0.0000000), wk =   0.0001447
        k(    2) = (  -0.0416667   0.0416667  -0.0416667), wk =   0.0011574
        k(    3) = (  -0.0833333   0.0833333  -0.0833333), wk =   0.0011574
        k(    4) = (  -0.1250000   0.1250000  -0.1250000), wk =   0.0011574
        k(    5) = (  -0.1666667   0.1666667  -0.1666667), wk =   0.0011574
        k(    6) = (  -0.2083333   0.2083333  -0.2083333), wk =   0.0011574
        k(    7) = (  -0.2500000   0.2500000  -0.2500000), wk =   0.0011574
        k(    8) = (  -0.2916667   0.2916667  -0.2916667), wk =   0.0011574
        k(    9) = (  -0.3333333   0.3333333  -0.3333333), wk =   0.0011574
        k(   10) = (  -0.3750000   0.3750000  -0.3750000), wk =   0.0011574
        k(   11) = (  -0.4166667   0.4166667  -0.4166667), wk =   0.0011574
        k(   12) = (  -0.4583333   0.4583333  -0.4583333), wk =   0.0011574
        k(   13) = (   0.5000000  -0.5000000   0.5000000), wk =   0.0005787
        k(   14) = (   0.0000000   0.0833333   0.0000000), wk =   0.0008681
        k(   15) = (  -0.0416667   0.1250000  -0.0416667), wk =   0.0034722
        k(   16) = (  -0.0833333   0.1666667  -0.0833333), wk =   0.0034722
        k(   17) = (  -0.1250000   0.2083333  -0.1250000), wk =   0.0034722
        k(   18) = (  -0.1666667   0.2500000  -0.1666667), wk =   0.0034722
        k(   19) = (  -0.2083333   0.2916667  -0.2083333), wk =   0.0034722
        k(   20) = (  -0.2500000   0.3333333  -0.2500000), wk =   0.0034722
        k(   21) = (  -0.2916667   0.3750000  -0.2916667), wk =   0.0034722
        k(   22) = (  -0.3333333   0.4166667  -0.3333333), wk =   0.0034722
        k(   23) = (  -0.3750000   0.4583333  -0.3750000), wk =   0.0034722
        k(   24) = (  -0.4166667   0.5000000  -0.4166667), wk =   0.0034722
        k(   25) = (   0.5416667  -0.4583333   0.5416667), wk =   0.0034722
        k(   26) = (   0.5000000  -0.4166667   0.5000000), wk =   0.0034722
        k(   27) = (   0.4583333  -0.3750000   0.4583333), wk =   0.0034722
        k(   28) = (   0.4166667  -0.3333333   0.4166667), wk =   0.0034722
        k(   29) = (   0.3750000  -0.2916667   0.3750000), wk =   0.0034722
        k(   30) = (   0.3333333  -0.2500000   0.3333333), wk =   0.0034722
        k(   31) = (   0.2916667  -0.2083333   0.2916667), wk =   0.0034722
        k(   32) = (   0.2500000  -0.1666667   0.2500000), wk =   0.0034722
        k(   33) = (   0.2083333  -0.1250000   0.2083333), wk =   0.0034722
        k(   34) = (   0.1666667  -0.0833333   0.1666667), wk =   0.0034722
        k(   35) = (   0.1250000  -0.0416667   0.1250000), wk =   0.0034722
        k(   36) = (   0.0833333   0.0000000   0.0833333), wk =   0.0017361
        k(   37) = (   0.0000000   0.1666667   0.0000000), wk =   0.0008681
        k(   38) = (  -0.0416667   0.2083333  -0.0416667), wk =   0.0034722
        k(   39) = (  -0.0833333   0.2500000  -0.0833333), wk =   0.0034722
        k(   40) = (  -0.1250000   0.2916667  -0.1250000), wk =   0.0034722
        k(   41) = (  -0.1666667   0.3333333  -0.1666667), wk =   0.0034722
        k(   42) = (  -0.2083333   0.3750000  -0.2083333), wk =   0.0034722
        k(   43) = (  -0.2500000   0.4166667  -0.2500000), wk =   0.0034722
        k(   44) = (  -0.2916667   0.4583333  -0.2916667), wk =   0.0034722
        k(   45) = (  -0.3333333   0.5000000  -0.3333333), wk =   0.0034722
        k(   46) = (  -0.3750000   0.5416667  -0.3750000), wk =   0.0034722
        k(   47) = (   0.5833333  -0.4166667   0.5833333), wk =   0.0034722
        k(   48) = (   0.5416667  -0.3750000   0.5416667), wk =   0.0034722
        k(   49) = (   0.5000000  -0.3333333   0.5000000), wk =   0.0034722
        k(   50) = (   0.4583333  -0.2916667   0.4583333), wk =   0.0034722
        k(   51) = (   0.4166667  -0.2500000   0.4166667), wk =   0.0034722
        k(   52) = (   0.3750000  -0.2083333   0.3750000), wk =   0.0034722
        k(   53) = (   0.3333333  -0.1666667   0.3333333), wk =   0.0034722
        k(   54) = (   0.2916667  -0.1250000   0.2916667), wk =   0.0034722
        k(   55) = (   0.2500000  -0.0833333   0.2500000), wk =   0.0034722
        k(   56) = (   0.2083333  -0.0416667   0.2083333), wk =   0.0034722
        k(   57) = (   0.1666667  -0.0000000   0.1666667), wk =   0.0017361
        k(   58) = (   0.0000000   0.2500000   0.0000000), wk =   0.0008681
        k(   59) = (  -0.0416667   0.2916667  -0.0416667), wk =   0.0034722
        k(   60) = (  -0.0833333   0.3333333  -0.0833333), wk =   0.0034722
        k(   61) = (  -0.1250000   0.3750000  -0.1250000), wk =   0.0034722
        k(   62) = (  -0.1666667   0.4166667  -0.1666667), wk =   0.0034722
        k(   63) = (  -0.2083333   0.4583333  -0.2083333), wk =   0.0034722
        k(   64) = (  -0.2500000   0.5000000  -0.2500000), wk =   0.0034722
        k(   65) = (  -0.2916667   0.5416667  -0.2916667), wk =   0.0034722
        k(   66) = (  -0.3333333   0.5833333  -0.3333333), wk =   0.0034722
        k(   67) = (   0.6250000  -0.3750000   0.6250000), wk =   0.0034722
        k(   68) = (   0.5833333  -0.3333333   0.5833333), wk =   0.0034722
        k(   69) = (   0.5416667  -0.2916667   0.5416667), wk =   0.0034722
        k(   70) = (   0.5000000  -0.2500000   0.5000000), wk =   0.0034722
        k(   71) = (   0.4583333  -0.2083333   0.4583333), wk =   0.0034722
        k(   72) = (   0.4166667  -0.1666667   0.4166667), wk =   0.0034722
        k(   73) = (   0.3750000  -0.1250000   0.3750000), wk =   0.0034722
        k(   74) = (   0.3333333  -0.0833333   0.3333333), wk =   0.0034722
        k(   75) = (   0.2916667  -0.0416667   0.2916667), wk =   0.0034722
        k(   76) = (   0.2500000   0.0000000   0.2500000), wk =   0.0017361
        k(   77) = (   0.0000000   0.3333333   0.0000000), wk =   0.0008681
        k(   78) = (  -0.0416667   0.3750000  -0.0416667), wk =   0.0034722
        k(   79) = (  -0.0833333   0.4166667  -0.0833333), wk =   0.0034722
        k(   80) = (  -0.1250000   0.4583333  -0.1250000), wk =   0.0034722
        k(   81) = (  -0.1666667   0.5000000  -0.1666667), wk =   0.0034722
        k(   82) = (  -0.2083333   0.5416667  -0.2083333), wk =   0.0034722
        k(   83) = (  -0.2500000   0.5833333  -0.2500000), wk =   0.0034722
        k(   84) = (  -0.2916667   0.6250000  -0.2916667), wk =   0.0034722
        k(   85) = (   0.6666667  -0.3333333   0.6666667), wk =   0.0034722
        k(   86) = (   0.6250000  -0.2916667   0.6250000), wk =   0.0034722
        k(   87) = (   0.5833333  -0.2500000   0.5833333), wk =   0.0034722
        k(   88) = (   0.5416667  -0.2083333   0.5416667), wk =   0.0034722
        k(   89) = (   0.5000000  -0.1666667   0.5000000), wk =   0.0034722
        k(   90) = (   0.4583333  -0.1250000   0.4583333), wk =   0.0034722
        k(   91) = (   0.4166667  -0.0833333   0.4166667), wk =   0.0034722
        k(   92) = (   0.3750000  -0.0416667   0.3750000), wk =   0.0034722
        k(   93) = (   0.3333333   0.0000000   0.3333333), wk =   0.0017361
        k(   94) = (   0.0000000   0.4166667   0.0000000), wk =   0.0008681
        k(   95) = (  -0.0416667   0.4583333  -0.0416667), wk =   0.0034722
        k(   96) = (  -0.0833333   0.5000000  -0.0833333), wk =   0.0034722
        k(   97) = (  -0.1250000   0.5416667  -0.1250000), wk =   0.0034722
        k(   98) = (  -0.1666667   0.5833333  -0.1666667), wk =   0.0034722
        k(   99) = (  -0.2083333   0.6250000  -0.2083333), wk =   0.0034722
        k(  100) = (  -0.2500000   0.6666667  -0.2500000), wk =   0.0034722
        k(  101) = (   0.7083333  -0.2916667   0.7083333), wk =   0.0034722
        k(  102) = (   0.6666667  -0.2500000   0.6666667), wk =   0.0034722
        k(  103) = (   0.6250000  -0.2083333   0.6250000), wk =   0.0034722
        k(  104) = (   0.5833333  -0.1666667   0.5833333), wk =   0.0034722
        k(  105) = (   0.5416667  -0.1250000   0.5416667), wk =   0.0034722
        k(  106) = (   0.5000000  -0.0833333   0.5000000), wk =   0.0034722
        k(  107) = (   0.4583333  -0.0416667   0.4583333), wk =   0.0034722
        k(  108) = (   0.4166667  -0.0000000   0.4166667), wk =   0.0017361
        k(  109) = (   0.0000000   0.5000000   0.0000000), wk =   0.0008681
        k(  110) = (  -0.0416667   0.5416667  -0.0416667), wk =   0.0034722
        k(  111) = (  -0.0833333   0.5833333  -0.0833333), wk =   0.0034722
        k(  112) = (  -0.1250000   0.6250000  -0.1250000), wk =   0.0034722
        k(  113) = (  -0.1666667   0.6666667  -0.1666667), wk =   0.0034722
        k(  114) = (  -0.2083333   0.7083333  -0.2083333), wk =   0.0034722
        k(  115) = (   0.7500000  -0.2500000   0.7500000), wk =   0.0034722
        k(  116) = (   0.7083333  -0.2083333   0.7083333), wk =   0.0034722
        k(  117) = (   0.6666667  -0.1666667   0.6666667), wk =   0.0034722
        k(  118) = (   0.6250000  -0.1250000   0.6250000), wk =   0.0034722
        k(  119) = (   0.5833333  -0.0833333   0.5833333), wk =   0.0034722
        k(  120) = (   0.5416667  -0.0416667   0.5416667), wk =   0.0034722
        k(  121) = (   0.5000000   0.0000000   0.5000000), wk =   0.0017361
        k(  122) = (   0.0000000   0.5833333   0.0000000), wk =   0.0008681
        k(  123) = (  -0.0416667   0.6250000  -0.0416667), wk =   0.0034722
        k(  124) = (  -0.0833333   0.6666667  -0.0833333), wk =   0.0034722
        k(  125) = (  -0.1250000   0.7083333  -0.1250000), wk =   0.0034722
        k(  126) = (  -0.1666667   0.7500000  -0.1666667), wk =   0.0034722
        k(  127) = (   0.7916667  -0.2083333   0.7916667), wk =   0.0034722
        k(  128) = (   0.7500000  -0.1666667   0.7500000), wk =   0.0034722
        k(  129) = (   0.7083333  -0.1250000   0.7083333), wk =   0.0034722
        k(  130) = (   0.6666667  -0.0833333   0.6666667), wk =   0.0034722
        k(  131) = (   0.6250000  -0.0416667   0.6250000), wk =   0.0034722
        k(  132) = (   0.5833333   0.0000000   0.5833333), wk =   0.0017361
        k(  133) = (   0.0000000   0.6666667   0.0000000), wk =   0.0008681
        k(  134) = (  -0.0416667   0.7083333  -0.0416667), wk =   0.0034722
        k(  135) = (  -0.0833333   0.7500000  -0.0833333), wk =   0.0034722
        k(  136) = (  -0.1250000   0.7916667  -0.1250000), wk =   0.0034722
        k(  137) = (   0.8333333  -0.1666667   0.8333333), wk =   0.0034722
        k(  138) = (   0.7916667  -0.1250000   0.7916667), wk =   0.0034722
        k(  139) = (   0.7500000  -0.0833333   0.7500000), wk =   0.0034722
        k(  140) = (   0.7083333  -0.0416667   0.7083333), wk =   0.0034722
        k(  141) = (   0.6666667  -0.0000000   0.6666667), wk =   0.0017361
        k(  142) = (   0.0000000   0.7500000   0.0000000), wk =   0.0008681
        k(  143) = (  -0.0416667   0.7916667  -0.0416667), wk =   0.0034722
        k(  144) = (  -0.0833333   0.8333333  -0.0833333), wk =   0.0034722
        k(  145) = (   0.8750000  -0.1250000   0.8750000), wk =   0.0034722
        k(  146) = (   0.8333333  -0.0833333   0.8333333), wk =   0.0034722
        k(  147) = (   0.7916667  -0.0416667   0.7916667), wk =   0.0034722
        k(  148) = (   0.7500000   0.0000000   0.7500000), wk =   0.0017361
        k(  149) = (   0.0000000   0.8333333   0.0000000), wk =   0.0008681
        k(  150) = (  -0.0416667   0.8750000  -0.0416667), wk =   0.0034722
        k(  151) = (   0.9166667  -0.0833333   0.9166667), wk =   0.0034722
        k(  152) = (   0.8750000  -0.0416667   0.8750000), wk =   0.0034722
        k(  153) = (   0.8333333   0.0000000   0.8333333), wk =   0.0017361
        k(  154) = (   0.0000000   0.9166667   0.0000000), wk =   0.0008681
        k(  155) = (   0.9583333  -0.0416667   0.9583333), wk =   0.0034722
        k(  156) = (   0.9166667  -0.0000000   0.9166667), wk =   0.0017361
        k(  157) = (   0.0000000  -1.0000000   0.0000000), wk =   0.0004340
        k(  158) = (  -0.0833333   0.1666667   0.0000000), wk =   0.0034722
        k(  159) = (  -0.1250000   0.2083333  -0.0416667), wk =   0.0069444
        k(  160) = (  -0.1666667   0.2500000  -0.0833333), wk =   0.0069444
        k(  161) = (  -0.2083333   0.2916667  -0.1250000), wk =   0.0069444
        k(  162) = (  -0.2500000   0.3333333  -0.1666667), wk =   0.0069444
        k(  163) = (  -0.2916667   0.3750000  -0.2083333), wk =   0.0069444
        k(  164) = (  -0.3333333   0.4166667  -0.2500000), wk =   0.0069444
        k(  165) = (  -0.3750000   0.4583333  -0.2916667), wk =   0.0069444
        k(  166) = (  -0.4166667   0.5000000  -0.3333333), wk =   0.0069444
        k(  167) = (   0.5416667  -0.4583333   0.6250000), wk =   0.0069444
        k(  168) = (   0.5000000  -0.4166667   0.5833333), wk =   0.0034722
        k(  169) = (  -0.0833333   0.2500000   0.0000000), wk =   0.0034722
        k(  170) = (  -0.1250000   0.2916667  -0.0416667), wk =   0.0069444
        k(  171) = (  -0.1666667   0.3333333  -0.0833333), wk =   0.0069444
        k(  172) = (  -0.2083333   0.3750000  -0.1250000), wk =   0.0069444
        k(  173) = (  -0.2500000   0.4166667  -0.1666667), wk =   0.0069444
        k(  174) = (  -0.2916667   0.4583333  -0.2083333), wk =   0.0069444
        k(  175) = (  -0.3333333   0.5000000  -0.2500000), wk =   0.0069444
        k(  176) = (  -0.3750000   0.5416667  -0.2916667), wk =   0.0069444
        k(  177) = (   0.5833333  -0.4166667   0.6666667), wk =   0.0069444
        k(  178) = (   0.5416667  -0.3750000   0.6250000), wk =   0.0069444
        k(  179) = (   0.5000000  -0.3333333   0.5833333), wk =   0.0069444
        k(  180) = (   0.4583333  -0.2916667   0.5416667), wk =   0.0069444
        k(  181) = (   0.4166667  -0.2500000   0.5000000), wk =   0.0069444
        k(  182) = (   0.3750000  -0.2083333   0.4583333), wk =   0.0069444
        k(  183) = (   0.3333333  -0.1666667   0.4166667), wk =   0.0069444
        k(  184) = (   0.2916667  -0.1250000   0.3750000), wk =   0.0069444
        k(  185) = (   0.2500000  -0.0833333   0.3333333), wk =   0.0069444
        k(  186) = (   0.2083333  -0.0416667   0.2916667), wk =   0.0069444
        k(  187) = (   0.1666667  -0.0000000   0.2500000), wk =   0.0034722
        k(  188) = (  -0.0833333   0.3333333  -0.0000000), wk =   0.0034722
        k(  189) = (  -0.1250000   0.3750000  -0.0416667), wk =   0.0069444
        k(  190) = (  -0.1666667   0.4166667  -0.0833333), wk =   0.0069444
        k(  191) = (  -0.2083333   0.4583333  -0.1250000), wk =   0.0069444
        k(  192) = (  -0.2500000   0.5000000  -0.1666667), wk =   0.0069444
        k(  193) = (  -0.2916667   0.5416667  -0.2083333), wk =   0.0069444
        k(  194) = (  -0.3333333   0.5833333  -0.2500000), wk =   0.0069444
        k(  195) = (   0.6250000  -0.3750000   0.7083333), wk =   0.0069444
        k(  196) = (   0.5833333  -0.3333333   0.6666667), wk =   0.0069444
        k(  197) = (   0.5416667  -0.2916667   0.6250000), wk =   0.0069444
        k(  198) = (   0.5000000  -0.2500000   0.5833333), wk =   0.0069444
        k(  199) = (   0.4583333  -0.2083333   0.5416667), wk =   0.0069444
        k(  200) = (   0.4166667  -0.1666667   0.5000000), wk =   0.0069444
        k(  201) = (   0.3750000  -0.1250000   0.4583333), wk =   0.0069444
        k(  202) = (   0.3333333  -0.0833333   0.4166667), wk =   0.0069444
        k(  203) = (   0.2916667  -0.0416667   0.3750000), wk =   0.0069444
        k(  204) = (   0.2500000   0.0000000   0.3333333), wk =   0.0034722
        k(  205) = (  -0.0833333   0.4166667   0.0000000), wk =   0.0034722
        k(  206) = (  -0.1250000   0.4583333  -0.0416667), wk =   0.0069444
        k(  207) = (  -0.1666667   0.5000000  -0.0833333), wk =   0.0069444
        k(  208) = (  -0.2083333   0.5416667  -0.1250000), wk =   0.0069444
        k(  209) = (  -0.2500000   0.5833333  -0.1666667), wk =   0.0069444
        k(  210) = (  -0.2916667   0.6250000  -0.2083333), wk =   0.0069444
        k(  211) = (   0.6666667  -0.3333333   0.7500000), wk =   0.0069444
        k(  212) = (   0.6250000  -0.2916667   0.7083333), wk =   0.0069444
        k(  213) = (   0.5833333  -0.2500000   0.6666667), wk =   0.0069444
        k(  214) = (   0.5416667  -0.2083333   0.6250000), wk =   0.0069444
        k(  215) = (   0.5000000  -0.1666667   0.5833333), wk =   0.0069444
        k(  216) = (   0.4583333  -0.1250000   0.5416667), wk =   0.0069444
        k(  217) = (   0.4166667  -0.0833333   0.5000000), wk =   0.0069444
        k(  218) = (   0.3750000  -0.0416667   0.4583333), wk =   0.0069444
        k(  219) = (   0.3333333   0.0000000   0.4166667), wk =   0.0034722
        k(  220) = (  -0.0833333   0.5000000   0.0000000), wk =   0.0034722
        k(  221) = (  -0.1250000   0.5416667  -0.0416667), wk =   0.0069444
        k(  222) = (  -0.1666667   0.5833333  -0.0833333), wk =   0.0069444
        k(  223) = (  -0.2083333   0.6250000  -0.1250000), wk =   0.0069444
        k(  224) = (  -0.2500000   0.6666667  -0.1666667), wk =   0.0069444
        k(  225) = (   0.7083333  -0.2916667   0.7916667), wk =   0.0069444
        k(  226) = (   0.6666667  -0.2500000   0.7500000), wk =   0.0069444
        k(  227) = (   0.6250000  -0.2083333   0.7083333), wk =   0.0069444
        k(  228) = (   0.5833333  -0.1666667   0.6666667), wk =   0.0069444
        k(  229) = (   0.5416667  -0.1250000   0.6250000), wk =   0.0069444
        k(  230) = (   0.5000000  -0.0833333   0.5833333), wk =   0.0069444
        k(  231) = (   0.4583333  -0.0416667   0.5416667), wk =   0.0069444
        k(  232) = (   0.4166667  -0.0000000   0.5000000), wk =   0.0034722
        k(  233) = (  -0.0833333   0.5833333   0.0000000), wk =   0.0034722
        k(  234) = (  -0.1250000   0.6250000  -0.0416667), wk =   0.0069444
        k(  235) = (  -0.1666667   0.6666667  -0.0833333), wk =   0.0069444
        k(  236) = (  -0.2083333   0.7083333  -0.1250000), wk =   0.0069444
        k(  237) = (   0.7500000  -0.2500000   0.8333333), wk =   0.0069444
        k(  238) = (   0.7083333  -0.2083333   0.7916667), wk =   0.0069444
        k(  239) = (   0.6666667  -0.1666667   0.7500000), wk =   0.0069444
        k(  240) = (   0.6250000  -0.1250000   0.7083333), wk =   0.0069444
        k(  241) = (   0.5833333  -0.0833333   0.6666667), wk =   0.0069444
        k(  242) = (   0.5416667  -0.0416667   0.6250000), wk =   0.0069444
        k(  243) = (   0.5000000   0.0000000   0.5833333), wk =   0.0034722
        k(  244) = (  -0.0833333   0.6666667   0.0000000), wk =   0.0034722
        k(  245) = (  -0.1250000   0.7083333  -0.0416667), wk =   0.0069444
        k(  246) = (  -0.1666667   0.7500000  -0.0833333), wk =   0.0069444
        k(  247) = (   0.7916667  -0.2083333   0.8750000), wk =   0.0069444
        k(  248) = (   0.7500000  -0.1666667   0.8333333), wk =   0.0069444
        k(  249) = (   0.7083333  -0.1250000   0.7916667), wk =   0.0069444
        k(  250) = (   0.6666667  -0.0833333   0.7500000), wk =   0.0069444
        k(  251) = (   0.6250000  -0.0416667   0.7083333), wk =   0.0069444
        k(  252) = (   0.5833333   0.0000000   0.6666667), wk =   0.0034722
        k(  253) = (  -0.0833333   0.7500000   0.0000000), wk =   0.0034722
        k(  254) = (  -0.1250000   0.7916667  -0.0416667), wk =   0.0069444
        k(  255) = (   0.8333333  -0.1666667   0.9166667), wk =   0.0069444
        k(  256) = (   0.7916667  -0.1250000   0.8750000), wk =   0.0069444
        k(  257) = (   0.7500000  -0.0833333   0.8333333), wk =   0.0069444
        k(  258) = (   0.7083333  -0.0416667   0.7916667), wk =   0.0069444
        k(  259) = (   0.6666667  -0.0000000   0.7500000), wk =   0.0034722
        k(  260) = (  -0.0833333   0.8333333   0.0000000), wk =   0.0034722
        k(  261) = (   0.8750000  -0.1250000   0.9583333), wk =   0.0069444
        k(  262) = (   0.8333333  -0.0833333   0.9166667), wk =   0.0069444
        k(  263) = (   0.7916667  -0.0416667   0.8750000), wk =   0.0069444
        k(  264) = (   0.7500000   0.0000000   0.8333333), wk =   0.0034722
        k(  265) = (   0.9166667  -0.0833333   1.0000000), wk =   0.0034722
        k(  266) = (   0.8750000  -0.0416667   0.9583333), wk =   0.0069444
        k(  267) = (   0.8333333   0.0000000   0.9166667), wk =   0.0034722
        k(  268) = (  -0.0833333  -1.0000000   0.0000000), wk =   0.0017361
        k(  269) = (  -0.1666667   0.3333333   0.0000000), wk =   0.0034722
        k(  270) = (  -0.2083333   0.3750000  -0.0416667), wk =   0.0069444
        k(  271) = (  -0.2500000   0.4166667  -0.0833333), wk =   0.0069444
        k(  272) = (  -0.2916667   0.4583333  -0.1250000), wk =   0.0069444
        k(  273) = (  -0.3333333   0.5000000  -0.1666667), wk =   0.0069444
        k(  274) = (  -0.3750000   0.5416667  -0.2083333), wk =   0.0069444
        k(  275) = (   0.5833333  -0.4166667   0.7500000), wk =   0.0069444
        k(  276) = (   0.5416667  -0.3750000   0.7083333), wk =   0.0069444
        k(  277) = (   0.5000000  -0.3333333   0.6666667), wk =   0.0034722
        k(  278) = (  -0.1666667   0.4166667   0.0000000), wk =   0.0034722
        k(  279) = (  -0.2083333   0.4583333  -0.0416667), wk =   0.0069444
        k(  280) = (  -0.2500000   0.5000000  -0.0833333), wk =   0.0069444
        k(  281) = (  -0.2916667   0.5416667  -0.1250000), wk =   0.0069444
        k(  282) = (  -0.3333333   0.5833333  -0.1666667), wk =   0.0069444
        k(  283) = (   0.6250000  -0.3750000   0.7916667), wk =   0.0069444
        k(  284) = (   0.5833333  -0.3333333   0.7500000), wk =   0.0069444
        k(  285) = (   0.5416667  -0.2916667   0.7083333), wk =   0.0069444
        k(  286) = (   0.5000000  -0.2500000   0.6666667), wk =   0.0069444
        k(  287) = (   0.4583333  -0.2083333   0.6250000), wk =   0.0069444
        k(  288) = (   0.4166667  -0.1666667   0.5833333), wk =   0.0069444
        k(  289) = (   0.3750000  -0.1250000   0.5416667), wk =   0.0069444
        k(  290) = (   0.3333333  -0.0833333   0.5000000), wk =   0.0069444
        k(  291) = (   0.2916667  -0.0416667   0.4583333), wk =   0.0069444
        k(  292) = (   0.2500000   0.0000000   0.4166667), wk =   0.0034722
        k(  293) = (  -0.1666667   0.5000000   0.0000000), wk =   0.0034722
        k(  294) = (  -0.2083333   0.5416667  -0.0416667), wk =   0.0069444
        k(  295) = (  -0.2500000   0.5833333  -0.0833333), wk =   0.0069444
        k(  296) = (  -0.2916667   0.6250000  -0.1250000), wk =   0.0069444
        k(  297) = (   0.6666667  -0.3333333   0.8333333), wk =   0.0069444
        k(  298) = (   0.6250000  -0.2916667   0.7916667), wk =   0.0069444
        k(  299) = (   0.5833333  -0.2500000   0.7500000), wk =   0.0069444
        k(  300) = (   0.5416667  -0.2083333   0.7083333), wk =   0.0069444
        k(  301) = (   0.5000000  -0.1666667   0.6666667), wk =   0.0069444
        k(  302) = (   0.4583333  -0.1250000   0.6250000), wk =   0.0069444
        k(  303) = (   0.4166667  -0.0833333   0.5833333), wk =   0.0069444
        k(  304) = (   0.3750000  -0.0416667   0.5416667), wk =   0.0069444
        k(  305) = (   0.3333333   0.0000000   0.5000000), wk =   0.0034722
        k(  306) = (  -0.1666667   0.5833333   0.0000000), wk =   0.0034722
        k(  307) = (  -0.2083333   0.6250000  -0.0416667), wk =   0.0069444
        k(  308) = (  -0.2500000   0.6666667  -0.0833333), wk =   0.0069444
        k(  309) = (   0.7083333  -0.2916667   0.8750000), wk =   0.0069444
        k(  310) = (   0.6666667  -0.2500000   0.8333333), wk =   0.0069444
        k(  311) = (   0.6250000  -0.2083333   0.7916667), wk =   0.0069444
        k(  312) = (   0.5833333  -0.1666667   0.7500000), wk =   0.0069444
        k(  313) = (   0.5416667  -0.1250000   0.7083333), wk =   0.0069444
        k(  314) = (   0.5000000  -0.0833333   0.6666667), wk =   0.0069444
        k(  315) = (   0.4583333  -0.0416667   0.6250000), wk =   0.0069444
        k(  316) = (   0.4166667   0.0000000   0.5833333), wk =   0.0034722
        k(  317) = (  -0.1666667   0.6666667  -0.0000000), wk =   0.0034722
        k(  318) = (  -0.2083333   0.7083333  -0.0416667), wk =   0.0069444
        k(  319) = (   0.7500000  -0.2500000   0.9166667), wk =   0.0069444
        k(  320) = (   0.7083333  -0.2083333   0.8750000), wk =   0.0069444
        k(  321) = (   0.6666667  -0.1666667   0.8333333), wk =   0.0069444
        k(  322) = (   0.6250000  -0.1250000   0.7916667), wk =   0.0069444
        k(  323) = (   0.5833333  -0.0833333   0.7500000), wk =   0.0069444
        k(  324) = (   0.5416667  -0.0416667   0.7083333), wk =   0.0069444
        k(  325) = (   0.5000000   0.0000000   0.6666667), wk =   0.0034722
        k(  326) = (  -0.1666667   0.7500000   0.0000000), wk =   0.0034722
        k(  327) = (   0.7916667  -0.2083333   0.9583333), wk =   0.0069444
        k(  328) = (   0.7500000  -0.1666667   0.9166667), wk =   0.0069444
        k(  329) = (   0.7083333  -0.1250000   0.8750000), wk =   0.0069444
        k(  330) = (   0.6666667  -0.0833333   0.8333333), wk =   0.0069444
        k(  331) = (   0.6250000  -0.0416667   0.7916667), wk =   0.0069444
        k(  332) = (   0.5833333   0.0000000   0.7500000), wk =   0.0034722
        k(  333) = (   0.8333333  -0.1666667   1.0000000), wk =   0.0034722
        k(  334) = (   0.7916667  -0.1250000   0.9583333), wk =   0.0069444
        k(  335) = (   0.7500000  -0.0833333   0.9166667), wk =   0.0069444
        k(  336) = (   0.7083333  -0.0416667   0.8750000), wk =   0.0069444
        k(  337) = (   0.6666667   0.0000000   0.8333333), wk =   0.0034722
        k(  338) = (   0.8333333  -0.0833333   1.0000000), wk =   0.0034722
        k(  339) = (   0.7916667  -0.0416667   0.9583333), wk =   0.0069444
        k(  340) = (   0.7500000   0.0000000   0.9166667), wk =   0.0034722
        k(  341) = (  -0.1666667  -1.0000000  -0.0000000), wk =   0.0017361
        k(  342) = (  -0.2500000   0.5000000   0.0000000), wk =   0.0034722
        k(  343) = (  -0.2916667   0.5416667  -0.0416667), wk =   0.0069444
        k(  344) = (  -0.3333333   0.5833333  -0.0833333), wk =   0.0069444
        k(  345) = (   0.6250000  -0.3750000   0.8750000), wk =   0.0069444
        k(  346) = (   0.5833333  -0.3333333   0.8333333), wk =   0.0069444
        k(  347) = (   0.5416667  -0.2916667   0.7916667), wk =   0.0069444
        k(  348) = (   0.5000000  -0.2500000   0.7500000), wk =   0.0034722
        k(  349) = (  -0.2500000   0.5833333   0.0000000), wk =   0.0034722
        k(  350) = (  -0.2916667   0.6250000  -0.0416667), wk =   0.0069444
        k(  351) = (   0.6666667  -0.3333333   0.9166667), wk =   0.0069444
        k(  352) = (   0.6250000  -0.2916667   0.8750000), wk =   0.0069444
        k(  353) = (   0.5833333  -0.2500000   0.8333333), wk =   0.0069444
        k(  354) = (   0.5416667  -0.2083333   0.7916667), wk =   0.0069444
        k(  355) = (   0.5000000  -0.1666667   0.7500000), wk =   0.0069444
        k(  356) = (   0.4583333  -0.1250000   0.7083333), wk =   0.0069444
        k(  357) = (   0.4166667  -0.0833333   0.6666667), wk =   0.0069444
        k(  358) = (   0.3750000  -0.0416667   0.6250000), wk =   0.0069444
        k(  359) = (   0.3333333   0.0000000   0.5833333), wk =   0.0034722
        k(  360) = (  -0.2500000   0.6666667   0.0000000), wk =   0.0034722
        k(  361) = (   0.7083333  -0.2916667   0.9583333), wk =   0.0069444
        k(  362) = (   0.6666667  -0.2500000   0.9166667), wk =   0.0069444
        k(  363) = (   0.6250000  -0.2083333   0.8750000), wk =   0.0069444
        k(  364) = (   0.5833333  -0.1666667   0.8333333), wk =   0.0069444
        k(  365) = (   0.5416667  -0.1250000   0.7916667), wk =   0.0069444
        k(  366) = (   0.5000000  -0.0833333   0.7500000), wk =   0.0069444
        k(  367) = (   0.4583333  -0.0416667   0.7083333), wk =   0.0069444
        k(  368) = (   0.4166667  -0.0000000   0.6666667), wk =   0.0034722
        k(  369) = (   0.7500000  -0.2500000   1.0000000), wk =   0.0034722
        k(  370) = (   0.7083333  -0.2083333   0.9583333), wk =   0.0069444
        k(  371) = (   0.6666667  -0.1666667   0.9166667), wk =   0.0069444
        k(  372) = (   0.6250000  -0.1250000   0.8750000), wk =   0.0069444
        k(  373) = (   0.5833333  -0.0833333   0.8333333), wk =   0.0069444
        k(  374) = (   0.5416667  -0.0416667   0.7916667), wk =   0.0069444
        k(  375) = (   0.5000000   0.0000000   0.7500000), wk =   0.0034722
        k(  376) = (   0.7500000  -0.1666667   1.0000000), wk =   0.0034722
        k(  377) = (   0.7083333  -0.1250000   0.9583333), wk =   0.0069444
        k(  378) = (   0.6666667  -0.0833333   0.9166667), wk =   0.0069444
        k(  379) = (   0.6250000  -0.0416667   0.8750000), wk =   0.0069444
        k(  380) = (   0.5833333   0.0000000   0.8333333), wk =   0.0034722
        k(  381) = (   0.7500000  -0.0833333   1.0000000), wk =   0.0034722
        k(  382) = (   0.7083333  -0.0416667   0.9583333), wk =   0.0069444
        k(  383) = (   0.6666667  -0.0000000   0.9166667), wk =   0.0034722
        k(  384) = (  -0.2500000  -1.0000000   0.0000000), wk =   0.0017361
        k(  385) = (   0.6666667  -0.3333333   1.0000000), wk =   0.0034722
        k(  386) = (   0.6250000  -0.2916667   0.9583333), wk =   0.0069444
        k(  387) = (   0.5833333  -0.2500000   0.9166667), wk =   0.0069444
        k(  388) = (   0.5416667  -0.2083333   0.8750000), wk =   0.0069444
        k(  389) = (   0.5000000  -0.1666667   0.8333333), wk =   0.0034722
        k(  390) = (   0.6666667  -0.2500000   1.0000000), wk =   0.0034722
        k(  391) = (   0.6250000  -0.2083333   0.9583333), wk =   0.0069444
        k(  392) = (   0.5833333  -0.1666667   0.9166667), wk =   0.0069444
        k(  393) = (   0.5416667  -0.1250000   0.8750000), wk =   0.0069444
        k(  394) = (   0.5000000  -0.0833333   0.8333333), wk =   0.0069444
        k(  395) = (   0.4583333  -0.0416667   0.7916667), wk =   0.0069444
        k(  396) = (   0.4166667  -0.0000000   0.7500000), wk =   0.0034722
        k(  397) = (   0.6666667  -0.1666667   1.0000000), wk =   0.0034722
        k(  398) = (   0.6250000  -0.1250000   0.9583333), wk =   0.0069444
        k(  399) = (   0.5833333  -0.0833333   0.9166667), wk =   0.0069444
        k(  400) = (   0.5416667  -0.0416667   0.8750000), wk =   0.0069444
        k(  401) = (   0.5000000   0.0000000   0.8333333), wk =   0.0034722
        k(  402) = (   0.6666667  -0.0833333   1.0000000), wk =   0.0034722
        k(  403) = (   0.6250000  -0.0416667   0.9583333), wk =   0.0069444
        k(  404) = (   0.5833333   0.0000000   0.9166667), wk =   0.0034722
        k(  405) = (  -0.3333333  -1.0000000   0.0000000), wk =   0.0017361
        k(  406) = (   0.5833333  -0.1666667   1.0000000), wk =   0.0034722
        k(  407) = (   0.5416667  -0.1250000   0.9583333), wk =   0.0069444
        k(  408) = (   0.5000000  -0.0833333   0.9166667), wk =   0.0034722
        k(  409) = (   0.5833333  -0.0833333   1.0000000), wk =   0.0034722
        k(  410) = (   0.5416667  -0.0416667   0.9583333), wk =   0.0069444
        k(  411) = (   0.5000000  -0.0000000   0.9166667), wk =   0.0034722
        k(  412) = (  -0.4166667  -1.0000000   0.0000000), wk =   0.0017361
        k(  413) = (  -0.5000000  -1.0000000   0.0000000), wk =   0.0008681

                       cryst. coord.
        k(    1) = (   0.0000000   0.0000000   0.0000000), wk =   0.0001447
        k(    2) = (   0.0000000   0.0000000   0.0416667), wk =   0.0011574
        k(    3) = (   0.0000000   0.0000000   0.0833333), wk =   0.0011574
        k(    4) = (   0.0000000   0.0000000   0.1250000), wk =   0.0011574
        k(    5) = (   0.0000000   0.0000000   0.1666667), wk =   0.0011574
        k(    6) = (   0.0000000   0.0000000   0.2083333), wk =   0.0011574
        k(    7) = (   0.0000000   0.0000000   0.2500000), wk =   0.0011574
        k(    8) = (   0.0000000   0.0000000   0.2916667), wk =   0.0011574
        k(    9) = (   0.0000000   0.0000000   0.3333333), wk =   0.0011574
        k(   10) = (   0.0000000   0.0000000   0.3750000), wk =   0.0011574
        k(   11) = (   0.0000000   0.0000000   0.4166667), wk =   0.0011574
        k(   12) = (   0.0000000   0.0000000   0.4583333), wk =   0.0011574
        k(   13) = (   0.0000000   0.0000000  -0.5000000), wk =   0.0005787
        k(   14) = (   0.0000000   0.0416667   0.0416667), wk =   0.0008681
        k(   15) = (   0.0000000   0.0416667   0.0833333), wk =   0.0034722
        k(   16) = (   0.0000000   0.0416667   0.1250000), wk =   0.0034722
        k(   17) = (   0.0000000   0.0416667   0.1666667), wk =   0.0034722
        k(   18) = (   0.0000000   0.0416667   0.2083333), wk =   0.0034722
        k(   19) = (   0.0000000   0.0416667   0.2500000), wk =   0.0034722
        k(   20) = (   0.0000000   0.0416667   0.2916667), wk =   0.0034722
        k(   21) = (   0.0000000   0.0416667   0.3333333), wk =   0.0034722
        k(   22) = (   0.0000000   0.0416667   0.3750000), wk =   0.0034722
        k(   23) = (   0.0000000   0.0416667   0.4166667), wk =   0.0034722
        k(   24) = (   0.0000000   0.0416667   0.4583333), wk =   0.0034722
        k(   25) = (   0.0000000   0.0416667  -0.5000000), wk =   0.0034722
        k(   26) = (   0.0000000   0.0416667  -0.4583333), wk =   0.0034722
        k(   27) = (   0.0000000   0.0416667  -0.4166667), wk =   0.0034722
        k(   28) = (   0.0000000   0.0416667  -0.3750000), wk =   0.0034722
        k(   29) = (   0.0000000   0.0416667  -0.3333333), wk =   0.0034722
        k(   30) = (   0.0000000   0.0416667  -0.2916667), wk =   0.0034722
        k(   31) = (   0.0000000   0.0416667  -0.2500000), wk =   0.0034722
        k(   32) = (   0.0000000   0.0416667  -0.2083333), wk =   0.0034722
        k(   33) = (   0.0000000   0.0416667  -0.1666667), wk =   0.0034722
        k(   34) = (   0.0000000   0.0416667  -0.1250000), wk =   0.0034722
        k(   35) = (   0.0000000   0.0416667  -0.0833333), wk =   0.0034722
        k(   36) = (   0.0000000   0.0416667  -0.0416667), wk =   0.0017361
        k(   37) = (   0.0000000   0.0833333   0.0833333), wk =   0.0008681
        k(   38) = (   0.0000000   0.0833333   0.1250000), wk =   0.0034722
        k(   39) = (   0.0000000   0.0833333   0.1666667), wk =   0.0034722
        k(   40) = (   0.0000000   0.0833333   0.2083333), wk =   0.0034722
        k(   41) = (   0.0000000   0.0833333   0.2500000), wk =   0.0034722
        k(   42) = (   0.0000000   0.0833333   0.2916667), wk =   0.0034722
        k(   43) = (   0.0000000   0.0833333   0.3333333), wk =   0.0034722
        k(   44) = (   0.0000000   0.0833333   0.3750000), wk =   0.0034722
        k(   45) = (   0.0000000   0.0833333   0.4166667), wk =   0.0034722
        k(   46) = (   0.0000000   0.0833333   0.4583333), wk =   0.0034722
        k(   47) = (   0.0000000   0.0833333  -0.5000000), wk =   0.0034722
        k(   48) = (   0.0000000   0.0833333  -0.4583333), wk =   0.0034722
        k(   49) = (   0.0000000   0.0833333  -0.4166667), wk =   0.0034722
        k(   50) = (   0.0000000   0.0833333  -0.3750000), wk =   0.0034722
        k(   51) = (   0.0000000   0.0833333  -0.3333333), wk =   0.0034722
        k(   52) = (   0.0000000   0.0833333  -0.2916667), wk =   0.0034722
        k(   53) = (   0.0000000   0.0833333  -0.2500000), wk =   0.0034722
        k(   54) = (   0.0000000   0.0833333  -0.2083333), wk =   0.0034722
        k(   55) = (   0.0000000   0.0833333  -0.1666667), wk =   0.0034722
        k(   56) = (   0.0000000   0.0833333  -0.1250000), wk =   0.0034722
        k(   57) = (   0.0000000   0.0833333  -0.0833333), wk =   0.0017361
        k(   58) = (   0.0000000   0.1250000   0.1250000), wk =   0.0008681
        k(   59) = (   0.0000000   0.1250000   0.1666667), wk =   0.0034722
        k(   60) = (   0.0000000   0.1250000   0.2083333), wk =   0.0034722
        k(   61) = (   0.0000000   0.1250000   0.2500000), wk =   0.0034722
        k(   62) = (   0.0000000   0.1250000   0.2916667), wk =   0.0034722
        k(   63) = (   0.0000000   0.1250000   0.3333333), wk =   0.0034722
        k(   64) = (   0.0000000   0.1250000   0.3750000), wk =   0.0034722
        k(   65) = (   0.0000000   0.1250000   0.4166667), wk =   0.0034722
        k(   66) = (   0.0000000   0.1250000   0.4583333), wk =   0.0034722
        k(   67) = (   0.0000000   0.1250000  -0.5000000), wk =   0.0034722
        k(   68) = (   0.0000000   0.1250000  -0.4583333), wk =   0.0034722
        k(   69) = (   0.0000000   0.1250000  -0.4166667), wk =   0.0034722
        k(   70) = (   0.0000000   0.1250000  -0.3750000), wk =   0.0034722
        k(   71) = (   0.0000000   0.1250000  -0.3333333), wk =   0.0034722
        k(   72) = (   0.0000000   0.1250000  -0.2916667), wk =   0.0034722
        k(   73) = (   0.0000000   0.1250000  -0.2500000), wk =   0.0034722
        k(   74) = (   0.0000000   0.1250000  -0.2083333), wk =   0.0034722
        k(   75) = (   0.0000000   0.1250000  -0.1666667), wk =   0.0034722
        k(   76) = (   0.0000000   0.1250000  -0.1250000), wk =   0.0017361
        k(   77) = (   0.0000000   0.1666667   0.1666667), wk =   0.0008681
        k(   78) = (   0.0000000   0.1666667   0.2083333), wk =   0.0034722
        k(   79) = (   0.0000000   0.1666667   0.2500000), wk =   0.0034722
        k(   80) = (   0.0000000   0.1666667   0.2916667), wk =   0.0034722
        k(   81) = (   0.0000000   0.1666667   0.3333333), wk =   0.0034722
        k(   82) = (   0.0000000   0.1666667   0.3750000), wk =   0.0034722
        k(   83) = (   0.0000000   0.1666667   0.4166667), wk =   0.0034722
        k(   84) = (   0.0000000   0.1666667   0.4583333), wk =   0.0034722
        k(   85) = (   0.0000000   0.1666667  -0.5000000), wk =   0.0034722
        k(   86) = (   0.0000000   0.1666667  -0.4583333), wk =   0.0034722
        k(   87) = (   0.0000000   0.1666667  -0.4166667), wk =   0.0034722
        k(   88) = (   0.0000000   0.1666667  -0.3750000), wk =   0.0034722
        k(   89) = (   0.0000000   0.1666667  -0.3333333), wk =   0.0034722
        k(   90) = (   0.0000000   0.1666667  -0.2916667), wk =   0.0034722
        k(   91) = (   0.0000000   0.1666667  -0.2500000), wk =   0.0034722
        k(   92) = (   0.0000000   0.1666667  -0.2083333), wk =   0.0034722
        k(   93) = (   0.0000000   0.1666667  -0.1666667), wk =   0.0017361
        k(   94) = (   0.0000000   0.2083333   0.2083333), wk =   0.0008681
        k(   95) = (   0.0000000   0.2083333   0.2500000), wk =   0.0034722
        k(   96) = (   0.0000000   0.2083333   0.2916667), wk =   0.0034722
        k(   97) = (   0.0000000   0.2083333   0.3333333), wk =   0.0034722
        k(   98) = (   0.0000000   0.2083333   0.3750000), wk =   0.0034722
        k(   99) = (   0.0000000   0.2083333   0.4166667), wk =   0.0034722
        k(  100) = (   0.0000000   0.2083333   0.4583333), wk =   0.0034722
        k(  101) = (   0.0000000   0.2083333  -0.5000000), wk =   0.0034722
        k(  102) = (   0.0000000   0.2083333  -0.4583333), wk =   0.0034722
        k(  103) = (   0.0000000   0.2083333  -0.4166667), wk =   0.0034722
        k(  104) = (   0.0000000   0.2083333  -0.3750000), wk =   0.0034722
        k(  105) = (   0.0000000   0.2083333  -0.3333333), wk =   0.0034722
        k(  106) = (   0.0000000   0.2083333  -0.2916667), wk =   0.0034722
        k(  107) = (   0.0000000   0.2083333  -0.2500000), wk =   0.0034722
        k(  108) = (   0.0000000   0.2083333  -0.2083333), wk =   0.0017361
        k(  109) = (   0.0000000   0.2500000   0.2500000), wk =   0.0008681
        k(  110) = (   0.0000000   0.2500000   0.2916667), wk =   0.0034722
        k(  111) = (   0.0000000   0.2500000   0.3333333), wk =   0.0034722
        k(  112) = (   0.0000000   0.2500000   0.3750000), wk =   0.0034722
        k(  113) = (   0.0000000   0.2500000   0.4166667), wk =   0.0034722
        k(  114) = (   0.0000000   0.2500000   0.4583333), wk =   0.0034722
        k(  115) = (   0.0000000   0.2500000  -0.5000000), wk =   0.0034722
        k(  116) = (   0.0000000   0.2500000  -0.4583333), wk =   0.0034722
        k(  117) = (   0.0000000   0.2500000  -0.4166667), wk =   0.0034722
        k(  118) = (   0.0000000   0.2500000  -0.3750000), wk =   0.0034722
        k(  119) = (   0.0000000   0.2500000  -0.3333333), wk =   0.0034722
        k(  120) = (   0.0000000   0.2500000  -0.2916667), wk =   0.0034722
        k(  121) = (   0.0000000   0.2500000  -0.2500000), wk =   0.0017361
        k(  122) = (   0.0000000   0.2916667   0.2916667), wk =   0.0008681
        k(  123) = (   0.0000000   0.2916667   0.3333333), wk =   0.0034722
        k(  124) = (   0.0000000   0.2916667   0.3750000), wk =   0.0034722
        k(  125) = (   0.0000000   0.2916667   0.4166667), wk =   0.0034722
        k(  126) = (   0.0000000   0.2916667   0.4583333), wk =   0.0034722
        k(  127) = (   0.0000000   0.2916667  -0.5000000), wk =   0.0034722
        k(  128) = (   0.0000000   0.2916667  -0.4583333), wk =   0.0034722
        k(  129) = (   0.0000000   0.2916667  -0.4166667), wk =   0.0034722
        k(  130) = (   0.0000000   0.2916667  -0.3750000), wk =   0.0034722
        k(  131) = (   0.0000000   0.2916667  -0.3333333), wk =   0.0034722
        k(  132) = (   0.0000000   0.2916667  -0.2916667), wk =   0.0017361
        k(  133) = (   0.0000000   0.3333333   0.3333333), wk =   0.0008681
        k(  134) = (   0.0000000   0.3333333   0.3750000), wk =   0.0034722
        k(  135) = (   0.0000000   0.3333333   0.4166667), wk =   0.0034722
        k(  136) = (   0.0000000   0.3333333   0.4583333), wk =   0.0034722
        k(  137) = (   0.0000000   0.3333333  -0.5000000), wk =   0.0034722
        k(  138) = (   0.0000000   0.3333333  -0.4583333), wk =   0.0034722
        k(  139) = (   0.0000000   0.3333333  -0.4166667), wk =   0.0034722
        k(  140) = (   0.0000000   0.3333333  -0.3750000), wk =   0.0034722
        k(  141) = (   0.0000000   0.3333333  -0.3333333), wk =   0.0017361
        k(  142) = (   0.0000000   0.3750000   0.3750000), wk =   0.0008681
        k(  143) = (   0.0000000   0.3750000   0.4166667), wk =   0.0034722
        k(  144) = (   0.0000000   0.3750000   0.4583333), wk =   0.0034722
        k(  145) = (   0.0000000   0.3750000  -0.5000000), wk =   0.0034722
        k(  146) = (   0.0000000   0.3750000  -0.4583333), wk =   0.0034722
        k(  147) = (   0.0000000   0.3750000  -0.4166667), wk =   0.0034722
        k(  148) = (   0.0000000   0.3750000  -0.3750000), wk =   0.0017361
        k(  149) = (   0.0000000   0.4166667   0.4166667), wk =   0.0008681
        k(  150) = (   0.0000000   0.4166667   0.4583333), wk =   0.0034722
        k(  151) = (   0.0000000   0.4166667  -0.5000000), wk =   0.0034722
        k(  152) = (   0.0000000   0.4166667  -0.4583333), wk =   0.0034722
        k(  153) = (   0.0000000   0.4166667  -0.4166667), wk =   0.0017361
        k(  154) = (   0.0000000   0.4583333   0.4583333), wk =   0.0008681
        k(  155) = (   0.0000000   0.4583333  -0.5000000), wk =   0.0034722
        k(  156) = (   0.0000000   0.4583333  -0.4583333), wk =   0.0017361
        k(  157) = (   0.0000000  -0.5000000  -0.5000000), wk =   0.0004340
        k(  158) = (   0.0416667   0.0833333   0.1250000), wk =   0.0034722
        k(  159) = (   0.0416667   0.0833333   0.1666667), wk =   0.0069444
        k(  160) = (   0.0416667   0.0833333   0.2083333), wk =   0.0069444
        k(  161) = (   0.0416667   0.0833333   0.2500000), wk =   0.0069444
        k(  162) = (   0.0416667   0.0833333   0.2916667), wk =   0.0069444
        k(  163) = (   0.0416667   0.0833333   0.3333333), wk =   0.0069444
        k(  164) = (   0.0416667   0.0833333   0.3750000), wk =   0.0069444
        k(  165) = (   0.0416667   0.0833333   0.4166667), wk =   0.0069444
        k(  166) = (   0.0416667   0.0833333   0.4583333), wk =   0.0069444
        k(  167) = (   0.0416667   0.0833333  -0.5000000), wk =   0.0069444
        k(  168) = (   0.0416667   0.0833333  -0.4583333), wk =   0.0034722
        k(  169) = (   0.0416667   0.1250000   0.1666667), wk =   0.0034722
        k(  170) = (   0.0416667   0.1250000   0.2083333), wk =   0.0069444
        k(  171) = (   0.0416667   0.1250000   0.2500000), wk =   0.0069444
        k(  172) = (   0.0416667   0.1250000   0.2916667), wk =   0.0069444
        k(  173) = (   0.0416667   0.1250000   0.3333333), wk =   0.0069444
        k(  174) = (   0.0416667   0.1250000   0.3750000), wk =   0.0069444
        k(  175) = (   0.0416667   0.1250000   0.4166667), wk =   0.0069444
        k(  176) = (   0.0416667   0.1250000   0.4583333), wk =   0.0069444
        k(  177) = (   0.0416667   0.1250000  -0.5000000), wk =   0.0069444
        k(  178) = (   0.0416667   0.1250000  -0.4583333), wk =   0.0069444
        k(  179) = (   0.0416667   0.1250000  -0.4166667), wk =   0.0069444
        k(  180) = (   0.0416667   0.1250000  -0.3750000), wk =   0.0069444
        k(  181) = (   0.0416667   0.1250000  -0.3333333), wk =   0.0069444
        k(  182) = (   0.0416667   0.1250000  -0.2916667), wk =   0.0069444
        k(  183) = (   0.0416667   0.1250000  -0.2500000), wk =   0.0069444
        k(  184) = (   0.0416667   0.1250000  -0.2083333), wk =   0.0069444
        k(  185) = (   0.0416667   0.1250000  -0.1666667), wk =   0.0069444
        k(  186) = (   0.0416667   0.1250000  -0.1250000), wk =   0.0069444
        k(  187) = (   0.0416667   0.1250000  -0.0833333), wk =   0.0034722
        k(  188) = (   0.0416667   0.1666667   0.2083333), wk =   0.0034722
        k(  189) = (   0.0416667   0.1666667   0.2500000), wk =   0.0069444
        k(  190) = (   0.0416667   0.1666667   0.2916667), wk =   0.0069444
        k(  191) = (   0.0416667   0.1666667   0.3333333), wk =   0.0069444
        k(  192) = (   0.0416667   0.1666667   0.3750000), wk =   0.0069444
        k(  193) = (   0.0416667   0.1666667   0.4166667), wk =   0.0069444
        k(  194) = (   0.0416667   0.1666667   0.4583333), wk =   0.0069444
        k(  195) = (   0.0416667   0.1666667  -0.5000000), wk =   0.0069444
        k(  196) = (   0.0416667   0.1666667  -0.4583333), wk =   0.0069444
        k(  197) = (   0.0416667   0.1666667  -0.4166667), wk =   0.0069444
        k(  198) = (   0.0416667   0.1666667  -0.3750000), wk =   0.0069444
        k(  199) = (   0.0416667   0.1666667  -0.3333333), wk =   0.0069444
        k(  200) = (   0.0416667   0.1666667  -0.2916667), wk =   0.0069444
        k(  201) = (   0.0416667   0.1666667  -0.2500000), wk =   0.0069444
        k(  202) = (   0.0416667   0.1666667  -0.2083333), wk =   0.0069444
        k(  203) = (   0.0416667   0.1666667  -0.1666667), wk =   0.0069444
        k(  204) = (   0.0416667   0.1666667  -0.1250000), wk =   0.0034722
        k(  205) = (   0.0416667   0.2083333   0.2500000), wk =   0.0034722
        k(  206) = (   0.0416667   0.2083333   0.2916667), wk =   0.0069444
        k(  207) = (   0.0416667   0.2083333   0.3333333), wk =   0.0069444
        k(  208) = (   0.0416667   0.2083333   0.3750000), wk =   0.0069444
        k(  209) = (   0.0416667   0.2083333   0.4166667), wk =   0.0069444
        k(  210) = (   0.0416667   0.2083333   0.4583333), wk =   0.0069444
        k(  211) = (   0.0416667   0.2083333  -0.5000000), wk =   0.0069444
        k(  212) = (   0.0416667   0.2083333  -0.4583333), wk =   0.0069444
        k(  213) = (   0.0416667   0.2083333  -0.4166667), wk =   0.0069444
        k(  214) = (   0.0416667   0.2083333  -0.3750000), wk =   0.0069444
        k(  215) = (   0.0416667   0.2083333  -0.3333333), wk =   0.0069444
        k(  216) = (   0.0416667   0.2083333  -0.2916667), wk =   0.0069444
        k(  217) = (   0.0416667   0.2083333  -0.2500000), wk =   0.0069444
        k(  218) = (   0.0416667   0.2083333  -0.2083333), wk =   0.0069444
        k(  219) = (   0.0416667   0.2083333  -0.1666667), wk =   0.0034722
        k(  220) = (   0.0416667   0.2500000   0.2916667), wk =   0.0034722
        k(  221) = (   0.0416667   0.2500000   0.3333333), wk =   0.0069444
        k(  222) = (   0.0416667   0.2500000   0.3750000), wk =   0.0069444
        k(  223) = (   0.0416667   0.2500000   0.4166667), wk =   0.0069444
        k(  224) = (   0.0416667   0.2500000   0.4583333), wk =   0.0069444
        k(  225) = (   0.0416667   0.2500000  -0.5000000), wk =   0.0069444
        k(  226) = (   0.0416667   0.2500000  -0.4583333), wk =   0.0069444
        k(  227) = (   0.0416667   0.2500000  -0.4166667), wk =   0.0069444
        k(  228) = (   0.0416667   0.2500000  -0.3750000), wk =   0.0069444
        k(  229) = (   0.0416667   0.2500000  -0.3333333), wk =   0.0069444
        k(  230) = (   0.0416667   0.2500000  -0.2916667), wk =   0.0069444
        k(  231) = (   0.0416667   0.2500000  -0.2500000), wk =   0.0069444
        k(  232) = (   0.0416667   0.2500000  -0.2083333), wk =   0.0034722
        k(  233) = (   0.0416667   0.2916667   0.3333333), wk =   0.0034722
        k(  234) = (   0.0416667   0.2916667   0.3750000), wk =   0.0069444
        k(  235) = (   0.0416667   0.2916667   0.4166667), wk =   0.0069444
        k(  236) = (   0.0416667   0.2916667   0.4583333), wk =   0.0069444
        k(  237) = (   0.0416667   0.2916667  -0.5000000), wk =   0.0069444
        k(  238) = (   0.0416667   0.2916667  -0.4583333), wk =   0.0069444
        k(  239) = (   0.0416667   0.2916667  -0.4166667), wk =   0.0069444
        k(  240) = (   0.0416667   0.2916667  -0.3750000), wk =   0.0069444
        k(  241) = (   0.0416667   0.2916667  -0.3333333), wk =   0.0069444
        k(  242) = (   0.0416667   0.2916667  -0.2916667), wk =   0.0069444
        k(  243) = (   0.0416667   0.2916667  -0.2500000), wk =   0.0034722
        k(  244) = (   0.0416667   0.3333333   0.3750000), wk =   0.0034722
        k(  245) = (   0.0416667   0.3333333   0.4166667), wk =   0.0069444
        k(  246) = (   0.0416667   0.3333333   0.4583333), wk =   0.0069444
        k(  247) = (   0.0416667   0.3333333  -0.5000000), wk =   0.0069444
        k(  248) = (   0.0416667   0.3333333  -0.4583333), wk =   0.0069444
        k(  249) = (   0.0416667   0.3333333  -0.4166667), wk =   0.0069444
        k(  250) = (   0.0416667   0.3333333  -0.3750000), wk =   0.0069444
        k(  251) = (   0.0416667   0.3333333  -0.3333333), wk =   0.0069444
        k(  252) = (   0.0416667   0.3333333  -0.2916667), wk =   0.0034722
        k(  253) = (   0.0416667   0.3750000   0.4166667), wk =   0.0034722
        k(  254) = (   0.0416667   0.3750000   0.4583333), wk =   0.0069444
        k(  255) = (   0.0416667   0.3750000  -0.5000000), wk =   0.0069444
        k(  256) = (   0.0416667   0.3750000  -0.4583333), wk =   0.0069444
        k(  257) = (   0.0416667   0.3750000  -0.4166667), wk =   0.0069444
        k(  258) = (   0.0416667   0.3750000  -0.3750000), wk =   0.0069444
        k(  259) = (   0.0416667   0.3750000  -0.3333333), wk =   0.0034722
        k(  260) = (   0.0416667   0.4166667   0.4583333), wk =   0.0034722
        k(  261) = (   0.0416667   0.4166667  -0.5000000), wk =   0.0069444
        k(  262) = (   0.0416667   0.4166667  -0.4583333), wk =   0.0069444
        k(  263) = (   0.0416667   0.4166667  -0.4166667), wk =   0.0069444
        k(  264) = (   0.0416667   0.4166667  -0.3750000), wk =   0.0034722
        k(  265) = (   0.0416667   0.4583333  -0.5000000), wk =   0.0034722
        k(  266) = (   0.0416667   0.4583333  -0.4583333), wk =   0.0069444
        k(  267) = (   0.0416667   0.4583333  -0.4166667), wk =   0.0034722
        k(  268) = (   0.0416667  -0.5000000  -0.4583333), wk =   0.0017361
        k(  269) = (   0.0833333   0.1666667   0.2500000), wk =   0.0034722
        k(  270) = (   0.0833333   0.1666667   0.2916667), wk =   0.0069444
        k(  271) = (   0.0833333   0.1666667   0.3333333), wk =   0.0069444
        k(  272) = (   0.0833333   0.1666667   0.3750000), wk =   0.0069444
        k(  273) = (   0.0833333   0.1666667   0.4166667), wk =   0.0069444
        k(  274) = (   0.0833333   0.1666667   0.4583333), wk =   0.0069444
        k(  275) = (   0.0833333   0.1666667  -0.5000000), wk =   0.0069444
        k(  276) = (   0.0833333   0.1666667  -0.4583333), wk =   0.0069444
        k(  277) = (   0.0833333   0.1666667  -0.4166667), wk =   0.0034722
        k(  278) = (   0.0833333   0.2083333   0.2916667), wk =   0.0034722
        k(  279) = (   0.0833333   0.2083333   0.3333333), wk =   0.0069444
        k(  280) = (   0.0833333   0.2083333   0.3750000), wk =   0.0069444
        k(  281) = (   0.0833333   0.2083333   0.4166667), wk =   0.0069444
        k(  282) = (   0.0833333   0.2083333   0.4583333), wk =   0.0069444
        k(  283) = (   0.0833333   0.2083333  -0.5000000), wk =   0.0069444
        k(  284) = (   0.0833333   0.2083333  -0.4583333), wk =   0.0069444
        k(  285) = (   0.0833333   0.2083333  -0.4166667), wk =   0.0069444
        k(  286) = (   0.0833333   0.2083333  -0.3750000), wk =   0.0069444
        k(  287) = (   0.0833333   0.2083333  -0.3333333), wk =   0.0069444
        k(  288) = (   0.0833333   0.2083333  -0.2916667), wk =   0.0069444
        k(  289) = (   0.0833333   0.2083333  -0.2500000), wk =   0.0069444
        k(  290) = (   0.0833333   0.2083333  -0.2083333), wk =   0.0069444
        k(  291) = (   0.0833333   0.2083333  -0.1666667), wk =   0.0069444
        k(  292) = (   0.0833333   0.2083333  -0.1250000), wk =   0.0034722
        k(  293) = (   0.0833333   0.2500000   0.3333333), wk =   0.0034722
        k(  294) = (   0.0833333   0.2500000   0.3750000), wk =   0.0069444
        k(  295) = (   0.0833333   0.2500000   0.4166667), wk =   0.0069444
        k(  296) = (   0.0833333   0.2500000   0.4583333), wk =   0.0069444
        k(  297) = (   0.0833333   0.2500000  -0.5000000), wk =   0.0069444
        k(  298) = (   0.0833333   0.2500000  -0.4583333), wk =   0.0069444
        k(  299) = (   0.0833333   0.2500000  -0.4166667), wk =   0.0069444
        k(  300) = (   0.0833333   0.2500000  -0.3750000), wk =   0.0069444
        k(  301) = (   0.0833333   0.2500000  -0.3333333), wk =   0.0069444
        k(  302) = (   0.0833333   0.2500000  -0.2916667), wk =   0.0069444
        k(  303) = (   0.0833333   0.2500000  -0.2500000), wk =   0.0069444
        k(  304) = (   0.0833333   0.2500000  -0.2083333), wk =   0.0069444
        k(  305) = (   0.0833333   0.2500000  -0.1666667), wk =   0.0034722
        k(  306) = (   0.0833333   0.2916667   0.3750000), wk =   0.0034722
        k(  307) = (   0.0833333   0.2916667   0.4166667), wk =   0.0069444
        k(  308) = (   0.0833333   0.2916667   0.4583333), wk =   0.0069444
        k(  309) = (   0.0833333   0.2916667  -0.5000000), wk =   0.0069444
        k(  310) = (   0.0833333   0.2916667  -0.4583333), wk =   0.0069444
        k(  311) = (   0.0833333   0.2916667  -0.4166667), wk =   0.0069444
        k(  312) = (   0.0833333   0.2916667  -0.3750000), wk =   0.0069444
        k(  313) = (   0.0833333   0.2916667  -0.3333333), wk =   0.0069444
        k(  314) = (   0.0833333   0.2916667  -0.2916667), wk =   0.0069444
        k(  315) = (   0.0833333   0.2916667  -0.2500000), wk =   0.0069444
        k(  316) = (   0.0833333   0.2916667  -0.2083333), wk =   0.0034722
        k(  317) = (   0.0833333   0.3333333   0.4166667), wk =   0.0034722
        k(  318) = (   0.0833333   0.3333333   0.4583333), wk =   0.0069444
        k(  319) = (   0.0833333   0.3333333  -0.5000000), wk =   0.0069444
        k(  320) = (   0.0833333   0.3333333  -0.4583333), wk =   0.0069444
        k(  321) = (   0.0833333   0.3333333  -0.4166667), wk =   0.0069444
        k(  322) = (   0.0833333   0.3333333  -0.3750000), wk =   0.0069444
        k(  323) = (   0.0833333   0.3333333  -0.3333333), wk =   0.0069444
        k(  324) = (   0.0833333   0.3333333  -0.2916667), wk =   0.0069444
        k(  325) = (   0.0833333   0.3333333  -0.2500000), wk =   0.0034722
        k(  326) = (   0.0833333   0.3750000   0.4583333), wk =   0.0034722
        k(  327) = (   0.0833333   0.3750000  -0.5000000), wk =   0.0069444
        k(  328) = (   0.0833333   0.3750000  -0.4583333), wk =   0.0069444
        k(  329) = (   0.0833333   0.3750000  -0.4166667), wk =   0.0069444
        k(  330) = (   0.0833333   0.3750000  -0.3750000), wk =   0.0069444
        k(  331) = (   0.0833333   0.3750000  -0.3333333), wk =   0.0069444
        k(  332) = (   0.0833333   0.3750000  -0.2916667), wk =   0.0034722
        k(  333) = (   0.0833333   0.4166667  -0.5000000), wk =   0.0034722
        k(  334) = (   0.0833333   0.4166667  -0.4583333), wk =   0.0069444
        k(  335) = (   0.0833333   0.4166667  -0.4166667), wk =   0.0069444
        k(  336) = (   0.0833333   0.4166667  -0.3750000), wk =   0.0069444
        k(  337) = (   0.0833333   0.4166667  -0.3333333), wk =   0.0034722
        k(  338) = (   0.0833333   0.4583333  -0.4583333), wk =   0.0034722
        k(  339) = (   0.0833333   0.4583333  -0.4166667), wk =   0.0069444
        k(  340) = (   0.0833333   0.4583333  -0.3750000), wk =   0.0034722
        k(  341) = (   0.0833333  -0.5000000  -0.4166667), wk =   0.0017361
        k(  342) = (   0.1250000   0.2500000   0.3750000), wk =   0.0034722
        k(  343) = (   0.1250000   0.2500000   0.4166667), wk =   0.0069444
        k(  344) = (   0.1250000   0.2500000   0.4583333), wk =   0.0069444
        k(  345) = (   0.1250000   0.2500000  -0.5000000), wk =   0.0069444
        k(  346) = (   0.1250000   0.2500000  -0.4583333), wk =   0.0069444
        k(  347) = (   0.1250000   0.2500000  -0.4166667), wk =   0.0069444
        k(  348) = (   0.1250000   0.2500000  -0.3750000), wk =   0.0034722
        k(  349) = (   0.1250000   0.2916667   0.4166667), wk =   0.0034722
        k(  350) = (   0.1250000   0.2916667   0.4583333), wk =   0.0069444
        k(  351) = (   0.1250000   0.2916667  -0.5000000), wk =   0.0069444
        k(  352) = (   0.1250000   0.2916667  -0.4583333), wk =   0.0069444
        k(  353) = (   0.1250000   0.2916667  -0.4166667), wk =   0.0069444
        k(  354) = (   0.1250000   0.2916667  -0.3750000), wk =   0.0069444
        k(  355) = (   0.1250000   0.2916667  -0.3333333), wk =   0.0069444
        k(  356) = (   0.1250000   0.2916667  -0.2916667), wk =   0.0069444
        k(  357) = (   0.1250000   0.2916667  -0.2500000), wk =   0.0069444
        k(  358) = (   0.1250000   0.2916667  -0.2083333), wk =   0.0069444
        k(  359) = (   0.1250000   0.2916667  -0.1666667), wk =   0.0034722
        k(  360) = (   0.1250000   0.3333333   0.4583333), wk =   0.0034722
        k(  361) = (   0.1250000   0.3333333  -0.5000000), wk =   0.0069444
        k(  362) = (   0.1250000   0.3333333  -0.4583333), wk =   0.0069444
        k(  363) = (   0.1250000   0.3333333  -0.4166667), wk =   0.0069444
        k(  364) = (   0.1250000   0.3333333  -0.3750000), wk =   0.0069444
        k(  365) = (   0.1250000   0.3333333  -0.3333333), wk =   0.0069444
        k(  366) = (   0.1250000   0.3333333  -0.2916667), wk =   0.0069444
        k(  367) = (   0.1250000   0.3333333  -0.2500000), wk =   0.0069444
        k(  368) = (   0.1250000   0.3333333  -0.2083333), wk =   0.0034722
        k(  369) = (   0.1250000   0.3750000  -0.5000000), wk =   0.0034722
        k(  370) = (   0.1250000   0.3750000  -0.4583333), wk =   0.0069444
        k(  371) = (   0.1250000   0.3750000  -0.4166667), wk =   0.0069444
        k(  372) = (   0.1250000   0.3750000  -0.3750000), wk =   0.0069444
        k(  373) = (   0.1250000   0.3750000  -0.3333333), wk =   0.0069444
        k(  374) = (   0.1250000   0.3750000  -0.2916667), wk =   0.0069444
        k(  375) = (   0.1250000   0.3750000  -0.2500000), wk =   0.0034722
        k(  376) = (   0.1250000   0.4166667  -0.4583333), wk =   0.0034722
        k(  377) = (   0.1250000   0.4166667  -0.4166667), wk =   0.0069444
        k(  378) = (   0.1250000   0.4166667  -0.3750000), wk =   0.0069444
        k(  379) = (   0.1250000   0.4166667  -0.3333333), wk =   0.0069444
        k(  380) = (   0.1250000   0.4166667  -0.2916667), wk =   0.0034722
        k(  381) = (   0.1250000   0.4583333  -0.4166667), wk =   0.0034722
        k(  382) = (   0.1250000   0.4583333  -0.3750000), wk =   0.0069444
        k(  383) = (   0.1250000   0.4583333  -0.3333333), wk =   0.0034722
        k(  384) = (   0.1250000  -0.5000000  -0.3750000), wk =   0.0017361
        k(  385) = (   0.1666667   0.3333333  -0.5000000), wk =   0.0034722
        k(  386) = (   0.1666667   0.3333333  -0.4583333), wk =   0.0069444
        k(  387) = (   0.1666667   0.3333333  -0.4166667), wk =   0.0069444
        k(  388) = (   0.1666667   0.3333333  -0.3750000), wk =   0.0069444
        k(  389) = (   0.1666667   0.3333333  -0.3333333), wk =   0.0034722
        k(  390) = (   0.1666667   0.3750000  -0.4583333), wk =   0.0034722
        k(  391) = (   0.1666667   0.3750000  -0.4166667), wk =   0.0069444
        k(  392) = (   0.1666667   0.3750000  -0.3750000), wk =   0.0069444
        k(  393) = (   0.1666667   0.3750000  -0.3333333), wk =   0.0069444
        k(  394) = (   0.1666667   0.3750000  -0.2916667), wk =   0.0069444
        k(  395) = (   0.1666667   0.3750000  -0.2500000), wk =   0.0069444
        k(  396) = (   0.1666667   0.3750000  -0.2083333), wk =   0.0034722
        k(  397) = (   0.1666667   0.4166667  -0.4166667), wk =   0.0034722
        k(  398) = (   0.1666667   0.4166667  -0.3750000), wk =   0.0069444
        k(  399) = (   0.1666667   0.4166667  -0.3333333), wk =   0.0069444
        k(  400) = (   0.1666667   0.4166667  -0.2916667), wk =   0.0069444
        k(  401) = (   0.1666667   0.4166667  -0.2500000), wk =   0.0034722
        k(  402) = (   0.1666667   0.4583333  -0.3750000), wk =   0.0034722
        k(  403) = (   0.1666667   0.4583333  -0.3333333), wk =   0.0069444
        k(  404) = (   0.1666667   0.4583333  -0.2916667), wk =   0.0034722
        k(  405) = (   0.1666667  -0.5000000  -0.3333333), wk =   0.0017361
        k(  406) = (   0.2083333   0.4166667  -0.3750000), wk =   0.0034722
        k(  407) = (   0.2083333   0.4166667  -0.3333333), wk =   0.0069444
        k(  408) = (   0.2083333   0.4166667  -0.2916667), wk =   0.0034722
        k(  409) = (   0.2083333   0.4583333  -0.3333333), wk =   0.0034722
        k(  410) = (   0.2083333   0.4583333  -0.2916667), wk =   0.0069444
        k(  411) = (   0.2083333   0.4583333  -0.2500000), wk =   0.0034722
        k(  412) = (   0.2083333  -0.5000000  -0.2916667), wk =   0.0017361
        k(  413) = (   0.2500000  -0.5000000  -0.2500000), wk =   0.0008681

     Dense  grid:     2085 G-vectors     FFT dimensions: (  18,  18,  18)

     Dynamical RAM for                 wfc:       0.10 MB

     Dynamical RAM for     wfc (w. buffer):       0.10 MB

     Dynamical RAM for           str. fact:       0.03 MB

     Dynamical RAM for           local pot:       0.00 MB

     Dynamical RAM for          nlocal pot:       0.03 MB

     Dynamical RAM for                qrad:       0.05 MB

     Dynamical RAM for          rho,v,vnew:       0.23 MB

     Dynamical RAM for           G-vectors:       0.14 MB

     Dynamical RAM for          h,s,v(r/c):       0.11 MB

     Dynamical RAM for          <psi|beta>:       0.00 MB

     Dynamical RAM for                 psi:       0.20 MB

     Dynamical RAM for                hpsi:       0.20 MB

     Dynamical RAM for      wfcinit/wfcrot:       0.21 MB

     Estimated static dynamical RAM per process >       0.87 MB

     Estimated max dynamical RAM per process >       1.38 MB

     The potential is recalculated from file :
     run_output/Si.save/charge-density

     Starting wfcs are    8 randomized atomic wfcs +   17 random wfcs

     Band Structure Calculation
     Davidson diagonalization with overlap

     Computing kpt #:     1  of   413
     total cpu time spent up to now is        0.6 secs

     Computing kpt #:     2  of   413
     total cpu time spent up to now is        0.8 secs

     Computing kpt #:     3  of   413
     total cpu time spent up to now is        0.9 secs

     Computing kpt #:     4  of   413
     total cpu time spent up to now is        1.0 secs

     Computing kpt #:     5  of   413
     total cpu time spent up to now is        1.1 secs

     Computing kpt #:     6  of   413
     total cpu time spent up to now is        1.1 secs

     Computing kpt #:     7  of   413
     total cpu time spent up to now is        1.2 secs

     Computing kpt #:     8  of   413
     total cpu time spent up to now is        1.3 secs

     Computing kpt #:     9  of   413
     total cpu time spent up to now is        1.4 secs

     Computing kpt #:    10  of   413
     total cpu time spent up to now is        1.5 secs

     Computing kpt #:    11  of   413
     total cpu time spent up to now is        1.6 secs

     Computing kpt #:    12  of   413
     total cpu time spent up to now is        1.7 secs

     Computing kpt #:    13  of   413
     total cpu time spent up to now is        1.8 secs

     Computing kpt #:    14  of   413
     total cpu time spent up to now is        1.8 secs

     Computing kpt #:    15  of   413
     total cpu time spent up to now is        1.9 secs

     Computing kpt #:    16  of   413
     total cpu time spent up to now is        2.0 secs

     Computing kpt #:    17  of   413
     total cpu time spent up to now is        2.1 secs

     Computing kpt #:    18  of   413
     total cpu time spent up to now is        2.2 secs

     Computing kpt #:    19  of   413
[...]
     0.0000   0.0000   0.0000   0.0000   0.0000   0.0000   0.0000   0.0000
     0.0000

          k = 0.6667-0.0000 0.9167 (   262 PWs)   bands (ev):

    -1.5951  -1.1554   2.2003   3.0140   8.4803   9.7465  13.1131  13.3027
    16.2887  17.0763  19.4074  20.3591  22.4552  23.3329  23.4489  23.6136
    25.2360  26.0343  27.2458  28.6420  29.4293  30.0163  31.4466  31.8043
    35.2715

     occupation numbers 
     1.0000   1.0000   1.0000   1.0000   0.0000   0.0000   0.0000   0.0000
     0.0000   0.0000   0.0000   0.0000   0.0000   0.0000   0.0000   0.0000
     0.0000   0.0000   0.0000   0.0000   0.0000   0.0000   0.0000   0.0000
     0.0000

          k =-0.2500-1.0000 0.0000 (   254 PWs)   bands (ev):

    -1.4134  -1.4133   2.8131   2.8131   8.2663   8.2663  14.2953  14.2953
    17.1015  17.1015  19.4179  19.4179  22.1336  22.1336  23.8829  23.8830
    25.4493  25.4493  28.3525  28.3525  29.4621  29.4622  30.7424  30.7424
    36.7567

     occupation numbers 
     1.0000   1.0000   1.0000   1.0000   0.0000   0.0000   0.0000   0.0000
     0.0000   0.0000   0.0000   0.0000   0.0000   0.0000   0.0000   0.0000
     0.0000   0.0000   0.0000   0.0000   0.0000   0.0000   0.0000   0.0000
     0.0000

          k = 0.6667-0.3333 1.0000 (   260 PWs)   bands (ev):

    -3.3959   0.7032   2.6550   3.9768   9.1867  10.0288  10.6448  13.5164
    15.4961  16.3551  19.4826  19.7240  20.2752  21.4597  23.0643  24.4432
    26.1589  27.5736  27.6012  29.2881  30.6266  31.0181  33.1693  34.2210
    34.7152

     occupation numbers 
     1.0000   1.0000   1.0000   1.0000   0.0000   0.0000   0.0000   0.0000
     0.0000   0.0000   0.0000   0.0000   0.0000   0.0000   0.0000   0.0000
     0.0000   0.0000   0.0000   0.0000   0.0000   0.0000   0.0000   0.0000
     0.0000

          k = 0.6250-0.2917 0.9583 (   256 PWs)   bands (ev):

    -3.0694   0.3085   2.4350   3.7815   9.4453  10.1875  10.6436  13.8201
    15.4571  15.8825  19.6361  20.4220  20.8416  21.1598  23.4724  24.6382
    26.1339  27.5086  27.9684  28.5385  30.2107  30.3895  33.4126  34.2495
    34.4982

     occupation numbers 
     1.0000   1.0000   1.0000   1.0000   0.0000   0.0000   0.0000   0.0000
     0.0000   0.0000   0.0000   0.0000   0.0000   0.0000   0.0000   0.0000
     0.0000   0.0000   0.0000   0.0000   0.0000   0.0000   0.0000   0.0000
     0.0000

          k = 0.5833-0.2500 0.9167 (   257 PWs)   bands (ev):

    -2.7484  -0.0851   2.3005   3.6243   9.5567  10.1213  11.1414  13.9551
    14.5311  16.4761  19.3752  20.2566  21.6166  21.8105  23.6481  25.0975
    25.7061  27.0711  27.6262  28.8444  29.9492  30.2469  32.7629  34.2400
    35.2914

     occupation numbers 
     1.0000   1.0000   1.0000   1.0000   0.0000   0.0000   0.0000   0.0000
     0.0000   0.0000   0.0000   0.0000   0.0000   0.0000   0.0000   0.0000
     0.0000   0.0000   0.0000   0.0000   0.0000   0.0000   0.0000   0.0000
     0.0000

          k = 0.5417-0.2083 0.8750 (   256 PWs)   bands (ev):

    -2.4820  -0.4027   2.2309   3.5233   9.6293   9.9977  11.8609  13.6221
    14.0092  17.1632  18.8849  19.9355  22.3829  22.7691  23.6940  24.8010
    25.4723  26.7528  27.6519  28.5515  29.6822  31.1553  32.3377  33.6469
    34.6955

     occupation numbers 
     1.0000   1.0000   1.0000   1.0000   0.0000   0.0000   0.0000   0.0000
     0.0000   0.0000   0.0000   0.0000   0.0000   0.0000   0.0000   0.0000
     0.0000   0.0000   0.0000   0.0000   0.0000   0.0000   0.0000   0.0000
     0.0000

          k = 0.5000-0.1667 0.8333 (   258 PWs)   bands (ev):

    -2.3695  -0.5371   2.2080   3.4882   9.6638   9.9349  12.4908  12.9379
    14.0198  17.6356  18.4524  19.8407  22.8008  23.3968  23.5935  24.4695
    25.0213  27.1331  27.5371  28.2873  29.5550  32.1428  32.3765  32.4943
    34.5615

     occupation numbers 
     1.0000   1.0000   1.0000   1.0000   0.0000   0.0000   0.0000   0.0000
     0.0000   0.0000   0.0000   0.0000   0.0000   0.0000   0.0000   0.0000
     0.0000   0.0000   0.0000   0.0000   0.0000   0.0000   0.0000   0.0000
     0.0000

          k = 0.6667-0.2500 1.0000 (   255 PWs)   bands (ev):

    -2.9311   0.2154   2.5137   3.4906   9.0696   9.6823  11.1843  14.4205
    15.5854  16.4121  19.9907  20.3613  20.6602  21.0977  23.1559  24.4753
    26.7596  27.0034  27.9729  28.0088  29.7458  30.1774  33.1184  34.7734
    34.9320

     occupation numbers 
     1.0000   1.0000   1.0000   1.0000   0.0000   0.0000   0.0000   0.0000
     0.0000   0.0000   0.0000   0.0000   0.0000   0.0000   0.0000   0.0000
     0.0000   0.0000   0.0000   0.0000   0.0000   0.0000   0.0000   0.0000
     0.0000

          k = 0.6250-0.2083 0.9583 (   254 PWs)   bands (ev):

    -2.6041  -0.1338   2.3200   3.3114   9.3176  10.0864  11.0284  14.6317
    14.7357  16.8327  19.6087  20.5961  21.2216  21.7682  23.1993  25.0353
    26.4663  26.7500  27.4599  28.1708  29.7659  29.7846  32.5767  34.5175
    35.3001

     occupation numbers 
     1.0000   1.0000   1.0000   1.0000   0.0000   0.0000   0.0000   0.0000
     0.0000   0.0000   0.0000   0.0000   0.0000   0.0000   0.0000   0.0000
     0.0000   0.0000   0.0000   0.0000   0.0000   0.0000   0.0000   0.0000
     0.0000

          k = 0.5833-0.1667 0.9167 (   258 PWs)   bands (ev):

    -2.3119  -0.4519   2.1776   3.2057   9.4256  10.5186  11.1106  13.7019
    14.8579  17.4158  18.9620  20.5699  21.7852  22.6684  23.5015  25.1881
    25.7807  26.2068  27.6250  27.9053  29.4002  30.7333  32.1019  34.2442
    35.2391

     occupation numbers 
     1.0000   1.0000   1.0000   1.0000   0.0000   0.0000   0.0000   0.0000
     0.0000   0.0000   0.0000   0.0000   0.0000   0.0000   0.0000   0.0000
     0.0000   0.0000   0.0000   0.0000   0.0000   0.0000   0.0000   0.0000
     0.0000

          k = 0.5417-0.1250 0.8750 (   261 PWs)   bands (ev):

    -2.1376  -0.6380   2.0844   3.1836   9.5373  10.5127  11.7329  12.8323
    14.8812  17.7081  18.6406  20.5452  22.0643  23.4803  23.8662  24.6709
    25.0555  26.4626  27.5629  27.7913  29.1938  31.6981  32.1331  33.4518
    34.5517

     occupation numbers 
     1.0000   1.0000   1.0000   1.0000   0.0000   0.0000   0.0000   0.0000
     0.0000   0.0000   0.0000   0.0000   0.0000   0.0000   0.0000   0.0000
     0.0000   0.0000   0.0000   0.0000   0.0000   0.0000   0.0000   0.0000
     0.0000

          k = 0.5000-0.0833 0.8333 (   260 PWs)   bands (ev):

    -2.1914  -0.5776   2.0464   3.2420   9.6727  10.4057  11.8708  12.7015
    14.8358  17.1578  19.2034  20.5573  21.9859  23.2434  23.7802  24.8387
    25.1817  26.7843  27.1803  27.8691  29.3414  31.7230  32.3585  33.3190
    34.3850

     occupation numbers 
     1.0000   1.0000   1.0000   1.0000   0.0000   0.0000   0.0000   0.0000
     0.0000   0.0000   0.0000   0.0000   0.0000   0.0000   0.0000   0.0000
     0.0000   0.0000   0.0000   0.0000   0.0000   0.0000   0.0000   0.0000
     0.0000

          k = 0.4583-0.0417 0.7917 (   258 PWs)   bands (ev):

    -2.4335  -0.3199   2.0794   3.3705   9.8342  10.2690  11.1884  13.5627
    14.6936  16.5257  19.8837  20.6008  21.4231  22.7631  23.1357  25.4409
    25.6578  26.9573  27.0529  28.1139  29.6449  30.8932  32.4122  33.9127
    35.0195

     occupation numbers 
     1.0000   1.0000   1.0000   1.0000   0.0000   0.0000   0.0000   0.0000
     0.0000   0.0000   0.0000   0.0000   0.0000   0.0000   0.0000   0.0000
     0.0000   0.0000   0.0000   0.0000   0.0000   0.0000   0.0000   0.0000
     0.0000

          k = 0.4167-0.0000 0.7500 (   254 PWs)   bands (ev):

    -2.7466   0.0024   2.2033   3.5568   9.9662  10.0170  10.7395  14.3385
    14.5309  16.0785  20.2813  20.6136  20.7747  21.8875  23.1553  25.1814
    26.0306  27.2263  27.5558  28.4657  29.9512  30.0653  32.9931  34.0564
    35.1929

     occupation numbers 
     1.0000   1.0000   1.0000   1.0000   0.0000   0.0000   0.0000   0.0000
     0.0000   0.0000   0.0000   0.0000   0.0000   0.0000   0.0000   0.0000
     0.0000   0.0000   0.0000   0.0000   0.0000   0.0000   0.0000   0.0000
     0.0000

          k = 0.6667-0.1667 1.0000 (   249 PWs)   bands (ev):

    -2.4278  -0.2934   2.4480   3.0857   9.0089   9.4060  11.7973  14.7597
    15.3420  17.2768  19.3597  20.7101  21.2080  21.8446  23.1705  24.6299
    26.1658  27.3213  27.4949  27.5093  29.5566  29.7808  31.9712  33.9060
    35.1708

     occupation numbers 
     1.0000   1.0000   1.0000   1.0000   0.0000   0.0000   0.0000   0.0000
     0.0000   0.0000   0.0000   0.0000   0.0000   0.0000   0.0000   0.0000
     0.0000   0.0000   0.0000   0.0000   0.0000   0.0000   0.0000   0.0000
     0.0000

          k = 0.6250-0.1250 0.9583 (   255 PWs)   bands (ev):

    -2.1168  -0.5972   2.2758   2.9426   9.2298   9.9289  11.6238  13.8150
    15.6412  17.6063  18.9753  20.7109  21.6171  22.7109  23.4106  24.8690
    25.5684  26.8016  27.0528  27.7602  29.4295  30.4044  31.5785  33.9121
    34.8787

     occupation numbers 
     1.0000   1.0000   1.0000   1.0000   0.0000   0.0000   0.0000   0.0000
     0.0000   0.0000   0.0000   0.0000   0.0000   0.0000   0.0000   0.0000
     0.0000   0.0000   0.0000   0.0000   0.0000   0.0000   0.0000   0.0000
     0.0000

          k = 0.5833-0.0833 0.9167 (   258 PWs)   bands (ev):

    -1.8882  -0.8182   2.1131   2.9243   9.3470  10.6221  11.5159  12.9094
    15.7230  17.6635  18.8597  20.7947  21.7755  23.5549  23.7184  24.6141
    25.5206  26.1626  26.6932  27.9454  29.2881  31.1025  31.8275  34.0384
    34.4655

     occupation numbers 
     1.0000   1.0000   1.0000   1.0000   0.0000   0.0000   0.0000   0.0000
     0.0000   0.0000   0.0000   0.0000   0.0000   0.0000   0.0000   0.0000
     0.0000   0.0000   0.0000   0.0000   0.0000   0.0000   0.0000   0.0000
     0.0000

          k = 0.5417-0.0417 0.8750 (   258 PWs)   bands (ev):

    -1.8959  -0.8020   2.0025   3.0049   9.4867  11.0119  11.7272  12.1458
    15.6264  17.1759  19.3458  20.8940  21.7261  23.1467  24.3702  24.9382
    25.2696  25.9706  26.7253  27.7578  29.3775  31.2311  33.0614  33.4572
    34.1009

     occupation numbers 
     1.0000   1.0000   1.0000   1.0000   0.0000   0.0000   0.0000   0.0000
     0.0000   0.0000   0.0000   0.0000   0.0000   0.0000   0.0000   0.0000
     0.0000   0.0000   0.0000   0.0000   0.0000   0.0000   0.0000   0.0000
     0.0000

          k = 0.5000 0.0000 0.8333 (   259 PWs)   bands (ev):

    -2.1277  -0.5852   1.9825   3.1594   9.6572  10.8310  11.3884  12.6489
    15.2933  16.7341  19.8150  21.0322  21.3306  22.8539  23.8606  25.3804
    25.4253  26.2914  27.2411  27.3478  29.5031  31.4964  32.3747  33.8433
    34.4008

     occupation numbers 
     1.0000   1.0000   1.0000   1.0000   0.0000   0.0000   0.0000   0.0000
     0.0000   0.0000   0.0000   0.0000   0.0000   0.0000   0.0000   0.0000
     0.0000   0.0000   0.0000   0.0000   0.0000   0.0000   0.0000   0.0000
     0.0000

          k = 0.6667-0.0833 1.0000 (   254 PWs)   bands (ev):

    -1.9062  -0.8257   2.4640   2.7769   9.0032   9.1983  12.4662  13.9615
    16.2365  17.6941  18.9427  20.2126  22.1134  22.7817  23.4586  24.4732
    25.0055  26.3165  27.8095  27.8908  29.4979  30.2326  30.8934  32.6119
    35.5552

     occupation numbers 
     1.0000   1.0000   1.0000   1.0000   0.0000   0.0000   0.0000   0.0000
     0.0000   0.0000   0.0000   0.0000   0.0000   0.0000   0.0000   0.0000
     0.0000   0.0000   0.0000   0.0000   0.0000   0.0000   0.0000   0.0000
     0.0000

          k = 0.6250-0.0417 0.9583 (   259 PWs)   bands (ev):

    -1.6350  -1.0704   2.2863   2.7177   9.1868   9.8412  12.2917  13.0310
    16.4915  17.4752  19.1166  20.1138  22.4510  23.4485  23.6417  24.5504
    24.8354  25.8240  27.1933  28.0624  29.5230  30.4181  31.5541  32.6722
    35.2415

     occupation numbers 
     1.0000   1.0000   1.0000   1.0000   0.0000   0.0000   0.0000   0.0000
     0.0000   0.0000   0.0000   0.0000   0.0000   0.0000   0.0000   0.0000
     0.0000   0.0000   0.0000   0.0000   0.0000   0.0000   0.0000   0.0000
     0.0000

          k = 0.5833 0.0000 0.9167 (   260 PWs)   bands (ev):

    -1.6435  -1.0436   2.0943   2.8228   9.3173  10.6146  12.1050  12.2298
    16.2636  17.2476  19.3113  20.4089  22.2785  23.1815  24.4112  24.5102
    25.2876  25.9305  26.2928  28.0016  29.5230  30.6391  32.7233  32.9622
    34.7445

     occupation numbers 
     1.0000   1.0000   1.0000   1.0000   0.0000   0.0000   0.0000   0.0000
     0.0000   0.0000   0.0000   0.0000   0.0000   0.0000   0.0000   0.0000
     0.0000   0.0000   0.0000   0.0000   0.0000   0.0000   0.0000   0.0000
     0.0000

          k =-0.3333-1.0000 0.0000 (   258 PWs)   bands (ev):

    -1.3692  -1.3692   2.5705   2.5705   9.0634   9.0634  13.1873  13.1873
    17.0988  17.0989  19.4851  19.4852  22.9868  22.9868  23.7934  23.7934
    25.2063  25.2063  28.1034  28.1034  29.7759  29.7759  31.4218  31.4218
    36.0781

     occupation numbers 
     1.0000   1.0000   1.0000   1.0000   0.0000   0.0000   0.0000   0.0000
     0.0000   0.0000   0.0000   0.0000   0.0000   0.0000   0.0000   0.0000
     0.0000   0.0000   0.0000   0.0000   0.0000   0.0000   0.0000   0.0000
     0.0000

          k = 0.5833-0.1667 1.0000 (   258 PWs)   bands (ev):

    -2.2853  -0.4247   2.1717   3.0778   9.9007  10.1368  10.9136  13.6694
    15.3085  17.0139  19.5939  20.8458  21.2304  22.8202  23.0051  25.2523
    26.4269  26.4445  27.1583  27.3765  29.5014  30.5671  32.1457  34.3276
    35.2734

     occupation numbers 
     1.0000   1.0000   1.0000   1.0000   0.0000   0.0000   0.0000   0.0000
     0.0000   0.0000   0.0000   0.0000   0.0000   0.0000   0.0000   0.0000
     0.0000   0.0000   0.0000   0.0000   0.0000   0.0000   0.0000   0.0000
     0.0000

          k = 0.5417-0.1250 0.9583 (   259 PWs)   bands (ev):

    -2.0013  -0.6951   2.0941   2.9214  10.0637  10.4190  11.1149  12.7595
    15.6320  17.3971  19.1655  20.8001  21.6129  23.2237  23.7921  24.9291
    25.8700  26.3964  26.8812  27.1177  29.4106  31.3397  32.0949  34.1722
    34.8658

     occupation numbers 
     1.0000   1.0000   1.0000   1.0000   0.0000   0.0000   0.0000   0.0000
     0.0000   0.0000   0.0000   0.0000   0.0000   0.0000   0.0000   0.0000
     0.0000   0.0000   0.0000   0.0000   0.0000   0.0000   0.0000   0.0000
     0.0000

          k = 0.5000-0.0833 0.9167 (   258 PWs)   bands (ev):

    -1.8690  -0.8199   2.0710   2.8663  10.0860  10.4655  11.6249  12.0948
    15.7241  17.6935  18.8395  20.7955  21.7389  23.6096  24.1458  24.8391
    25.2621  26.3417  26.7987  27.1723  29.4032  31.3164  33.1191  33.2623
    34.6036

     occupation numbers 
     1.0000   1.0000   1.0000   1.0000   0.0000   0.0000   0.0000   0.0000
     0.0000   0.0000   0.0000   0.0000   0.0000   0.0000   0.0000   0.0000
     0.0000   0.0000   0.0000   0.0000   0.0000   0.0000   0.0000   0.0000
     0.0000

          k = 0.5833-0.0833 1.0000 (   258 PWs)   bands (ev):

    -1.8092  -0.8699   2.2376   2.6885   9.8921  10.0328  11.4604  12.8740
    16.2400  17.5637  19.0842  20.3036  22.0893  23.3527  23.7710  24.6890
    25.6047  26.1230  26.8718  27.3263  29.5096  30.8929  31.7796  33.9122
    34.8593

     occupation numbers 
     1.0000   1.0000   1.0000   1.0000   0.0000   0.0000   0.0000   0.0000
     0.0000   0.0000   0.0000   0.0000   0.0000   0.0000   0.0000   0.0000
     0.0000   0.0000   0.0000   0.0000   0.0000   0.0000   0.0000   0.0000
     0.0000

          k = 0.5417-0.0417 0.9583 (   258 PWs)   bands (ev):

    -1.5999  -1.0566   2.1835   2.6029  10.0579  10.6353  11.3992  12.0192
    16.4913  17.4980  19.1292  20.1669  22.3347  23.3355  24.4470  24.8586
    25.5436  25.8221  26.2792  27.1568  29.7404  30.7455  32.9317  34.0603
    34.4313

     occupation numbers 
     1.0000   1.0000   1.0000   1.0000   0.0000   0.0000   0.0000   0.0000
     0.0000   0.0000   0.0000   0.0000   0.0000   0.0000   0.0000   0.0000
     0.0000   0.0000   0.0000   0.0000   0.0000   0.0000   0.0000   0.0000
     0.0000

          k = 0.5000-0.0000 0.9167 (   259 PWs)   bands (ev):

    -1.7191  -0.9426   2.1083   2.7057  10.1719  10.7614  11.2845  11.9258
    16.2510  17.4143  19.2071  20.3815  22.1154  23.2009  24.6611  24.7622
    25.8977  26.0217  26.0417  27.0138  29.6407  30.9907  33.1586  34.1765
    34.2351

     occupation numbers 
     1.0000   1.0000   1.0000   1.0000   0.0000   0.0000   0.0000   0.0000
     0.0000   0.0000   0.0000   0.0000   0.0000   0.0000   0.0000   0.0000
     0.0000   0.0000   0.0000   0.0000   0.0000   0.0000   0.0000   0.0000
     0.0000

          k =-0.4167-1.0000 0.0000 (   258 PWs)   bands (ev):

    -1.3332  -1.3331   2.4074   2.4074   9.9358   9.9358  12.1334  12.1334
    17.1023  17.1024  19.5432  19.5432  22.9696  22.9696  24.6701  24.6701
    25.0905  25.0906  27.2121  27.2121  30.1049  30.1049  32.7290  32.7290
    35.4859

     occupation numbers 
     1.0000   1.0000   1.0000   1.0000   0.0000   0.0000   0.0000   0.0000
     0.0000   0.0000   0.0000   0.0000   0.0000   0.0000   0.0000   0.0000
     0.0000   0.0000   0.0000   0.0000   0.0000   0.0000   0.0000   0.0000
     0.0000

          k =-0.5000-1.0000 0.0000 (   264 PWs)   bands (ev):

    -1.3247  -1.3246   2.3493   2.3493  10.5893  10.5894  11.4107  11.4108
    17.1004  17.1004  19.5608  19.5608  22.8952  22.8952  24.9452  24.9453
    25.5124  25.5124  26.4556  26.4556  30.2490  30.2490  34.1336  34.1336
    34.3042

     occupation numbers 
     1.0000   1.0000   1.0000   1.0000   0.0000   0.0000   0.0000   0.0000
     0.0000   0.0000   0.0000   0.0000   0.0000   0.0000   0.0000   0.0000
     0.0000   0.0000   0.0000   0.0000   0.0000   0.0000   0.0000   0.0000
     0.0000

     highest occupied, lowest unoccupied level (ev):     6.3571    6.8352

     Writing output data file run_output/Si.save/

     init_run     :      0.10s CPU      0.10s WALL (       1 calls)
     electrons    :     38.13s CPU     38.39s WALL (       1 calls)

     Called by init_run:
     wfcinit      :      0.00s CPU      0.00s WALL (       1 calls)
     wfcinit:atom :      0.03s CPU      0.03s WALL (     413 calls)
     wfcinit:wfcr :      2.69s CPU      2.72s WALL (     413 calls)
     potinit      :      0.00s CPU      0.00s WALL (       1 calls)
     hinit0       :      0.06s CPU      0.06s WALL (       1 calls)

     Called by electrons:
     c_bands      :     38.11s CPU     38.38s WALL (       1 calls)
     v_of_rho     :      0.00s CPU      0.00s WALL (       1 calls)
     v_h          :      0.00s CPU      0.00s WALL (       1 calls)
     v_xc         :      0.00s CPU      0.00s WALL (       1 calls)

     Called by c_bands:
     init_us_2    :      0.02s CPU      0.04s WALL (     413 calls)
     cegterg      :     35.19s CPU     35.39s WALL (     427 calls)

     Called by sum_band:

     Called by *egterg:
     cdiaghg      :      7.97s CPU      7.96s WALL (    6572 calls)
     cegterg:over :      3.74s CPU      3.73s WALL (    6159 calls)
     cegterg:upda :      1.97s CPU      2.02s WALL (    6159 calls)
     cegterg:last :      3.82s CPU      3.81s WALL (    3331 calls)
     h_psi        :     19.17s CPU     19.36s WALL (    6999 calls)
     g_psi        :      0.27s CPU      0.25s WALL (    6159 calls)

     Called by h_psi:
     h_psi:calbec :      0.45s CPU      0.43s WALL (    6999 calls)
     vloc_psi     :     18.26s CPU     18.44s WALL (    6999 calls)
     add_vuspsi   :      0.40s CPU      0.41s WALL (    6999 calls)

     General routines
     calbec       :      0.44s CPU      0.42s WALL (    6999 calls)
     fft          :      0.00s CPU      0.00s WALL (       3 calls)
     fftw         :     17.04s CPU     17.15s WALL (  187398 calls)
     davcio       :      0.01s CPU      0.15s WALL (     826 calls)

     Parallel routines

     PWSCF        :     38.68s CPU     40.37s WALL


   This run was terminated on:  18:21:45  23Feb2021            

=------------------------------------------------------------------------------=
   JOB DONE.
=------------------------------------------------------------------------------=
