
     Program PWSCF v.6.7MaX starts on 29Jun2021 at 19:11: 4 

     This program is part of the open-source Quantum ESPRESSO suite
     for quantum simulation of materials; please cite
         "P. Giannozzi et al., J. Phys.:Condens. Matter 21 395502 (2009);
         "P. Giannozzi et al., J. Phys.:Condens. Matter 29 465901 (2017);
          URL http://www.quantum-espresso.org", 
     in publications or presentations arising from this work. More details at
     http://www.quantum-espresso.org/quote

     Parallel version (MPI), running on    84 processors

     MPI processes distributed on     3 nodes
     K-points division:     npool     =      14
     R & G space division:  proc/nbgrp/npool/nimage =       6
     Waiting for input...
     Reading input from standard input

     Current dimensions of program PWSCF are:
     Max number of different atomic species (ntypx) = 10
     Max number of k-points (npk) =  40000
     Max angular momentum in pseudopotentials (lmaxx) =  3

     Atomic positions and unit cell read from directory:
     run_output/BP.save/
     Atomic positions from file used, from input discarded


     Subspace diagonalization in iterative solution of the eigenvalue problem:
     a serial algorithm will be used

     Found symmetry operation: I + ( -0.5000  0.0000 -0.5000)
     This is a supercell, fractional translations are disabled
     Message from routine setup:
     using ibrav=0 with symmetry is DISCOURAGED, use correct ibrav instead

     Parallelization info
     --------------------
     sticks:   dense  smooth     PW     G-vecs:    dense   smooth      PW
     Min         115     115     33                 6505     6505    1075
     Max         116     116     34                 6512     6512    1086
     Sum         691     691    203                39043    39043    6489



     bravais-lattice index     =            0
     lattice parameter (alat)  =       6.2476  a.u.
     unit-cell volume          =    1139.7026 (a.u.)^3
     number of atoms/cell      =            8
     number of atomic types    =            1
     number of electrons       =        40.00
     number of Kohn-Sham states=          100
     kinetic-energy cutoff     =      40.0000  Ry
     charge density cutoff     =     160.0000  Ry
     Exchange-correlation= SLA-PW-PBX-PBC
                           (   1   4   3   4   0   0   0)

     celldm(1)=   6.247642  celldm(2)=   0.000000  celldm(3)=   0.000000
     celldm(4)=   0.000000  celldm(5)=   0.000000  celldm(6)=   0.000000

     crystal axes: (cart. coord. in units of alat)
               a(1) = (   1.000000   0.000000   0.000000 )  
               a(2) = (   0.000000   1.376971   0.000000 )  
               a(3) = (   0.000000   0.000000   3.394050 )  

     reciprocal axes: (cart. coord. in units 2 pi/alat)
               b(1) = (  1.000000  0.000000  0.000000 )  
               b(2) = (  0.000000  0.726232  0.000000 )  
               b(3) = (  0.000000  0.000000  0.294633 )  


     PseudoPot. # 1 for P  read from file:
     PPs/P.pbe-hgh.UPF
     MD5 check sum: 2fd0d529aa5ddd1edad02a885f5e7817
     Pseudo is Norm-conserving, Zval =  5.0
     Generated in analytical, separable form
     Using radial grid of 1147 points,  3 beta functions with: 
                l(1) =   0
                l(2) =   0
                l(3) =   1

     atomic species   valence    mass     pseudopotential
        P              5.00    30.97000     P ( 1.00)

      4 Sym. Ops., with inversion, found


                                    s                        frac. trans.

      isym =  1     identity                                     

 cryst.   s( 1) = (     1          0          0      )
                  (     0          1          0      )
                  (     0          0          1      )

 cart.    s( 1) = (  1.0000000  0.0000000  0.0000000 )
                  (  0.0000000  1.0000000  0.0000000 )
                  (  0.0000000  0.0000000  1.0000000 )


      isym =  2     180 deg rotation - cart. axis [1,0,0]        

 cryst.   s( 2) = (     1          0          0      )
                  (     0         -1          0      )
                  (     0          0         -1      )

 cart.    s( 2) = (  1.0000000  0.0000000  0.0000000 )
                  (  0.0000000 -1.0000000  0.0000000 )
                  (  0.0000000  0.0000000 -1.0000000 )


      isym =  3     inversion                                    

 cryst.   s( 3) = (    -1          0          0      )
                  (     0         -1          0      )
                  (     0          0         -1      )

 cart.    s( 3) = ( -1.0000000  0.0000000  0.0000000 )
                  (  0.0000000 -1.0000000  0.0000000 )
                  (  0.0000000  0.0000000 -1.0000000 )


      isym =  4     inv. 180 deg rotation - cart. axis [1,0,0]   

 cryst.   s( 4) = (    -1          0          0      )
                  (     0          1          0      )
                  (     0          0          1      )

 cart.    s( 4) = ( -1.0000000  0.0000000  0.0000000 )
                  (  0.0000000  1.0000000  0.0000000 )
                  (  0.0000000  0.0000000  1.0000000 )


   Cartesian axes

     site n.     atom                  positions (alat units)
         1           P   tau(   1) = (   0.0000000   1.2578399   2.0177422  )
         2           P   tau(   2) = (   0.5000000   0.1191314   3.0733325  )
         3           P   tau(   3) = (   0.0000000   0.5693542   3.0733325  )
         4           P   tau(   4) = (   0.5000000   0.8076170   2.0177422  )
         5           P   tau(   5) = (   0.5000000   1.2578399   0.3207174  )
         6           P   tau(   6) = (   0.0000000   0.1191314   1.3763076  )
         7           P   tau(   7) = (   0.5000000   0.5693542   1.3763076  )
         8           P   tau(   8) = (   0.0000000   0.8076170   0.3207174  )

   Crystallographic axes

     site n.     atom                  positions (cryst. coord.)
         1           P   tau(   1) = (  0.0000000  0.9134831  0.5944940  )
         2           P   tau(   2) = (  0.5000000  0.0865170  0.9055060  )
         3           P   tau(   3) = (  0.0000000  0.4134830  0.9055060  )
         4           P   tau(   4) = (  0.5000000  0.5865170  0.5944940  )
         5           P   tau(   5) = (  0.5000000  0.9134831  0.0944940  )
         6           P   tau(   6) = (  0.0000000  0.0865170  0.4055060  )
         7           P   tau(   7) = (  0.5000000  0.4134830  0.4055060  )
         8           P   tau(   8) = (  0.0000000  0.5865170  0.0944940  )

     number of k points=   176
                       cart. coord. in units 2pi/alat
        k(    1) = (   0.0000000   0.0000000   0.0000000), wk =   0.0035714
        k(    2) = (   0.0000000   0.0000000   0.0736583), wk =   0.0071429
        k(    3) = (   0.0000000   0.0000000  -0.1473166), wk =   0.0035714
        k(    4) = (   0.0000000   0.0726232   0.0000000), wk =   0.0071429
        k(    5) = (   0.0000000   0.0726232   0.0736583), wk =   0.0071429
        k(    6) = (   0.0000000   0.0726232  -0.1473166), wk =   0.0071429
        k(    7) = (   0.0000000   0.1452463   0.0000000), wk =   0.0071429
        k(    8) = (   0.0000000   0.1452463   0.0736583), wk =   0.0071429
        k(    9) = (   0.0000000   0.1452463  -0.1473166), wk =   0.0071429
        k(   10) = (   0.0000000   0.2178695   0.0000000), wk =   0.0071429
        k(   11) = (   0.0000000   0.2178695   0.0736583), wk =   0.0071429
        k(   12) = (   0.0000000   0.2178695  -0.1473166), wk =   0.0071429
        k(   13) = (   0.0000000   0.2904926   0.0000000), wk =   0.0071429
        k(   14) = (   0.0000000   0.2904926   0.0736583), wk =   0.0071429
        k(   15) = (   0.0000000   0.2904926  -0.1473166), wk =   0.0071429
        k(   16) = (   0.0000000  -0.3631158   0.0000000), wk =   0.0035714
        k(   17) = (   0.0000000  -0.3631158   0.0736583), wk =   0.0071429
        k(   18) = (   0.0000000  -0.3631158  -0.1473166), wk =   0.0035714
        k(   19) = (   0.0714286   0.0000000   0.0000000), wk =   0.0071429
        k(   20) = (   0.0714286   0.0000000   0.0736583), wk =   0.0142857
        k(   21) = (   0.0714286   0.0000000  -0.1473166), wk =   0.0071429
        k(   22) = (   0.0714286   0.0726232   0.0000000), wk =   0.0142857
        k(   23) = (   0.0714286   0.0726232   0.0736583), wk =   0.0142857
        k(   24) = (   0.0714286   0.0726232  -0.1473166), wk =   0.0142857
        k(   25) = (   0.0714286   0.1452463   0.0000000), wk =   0.0142857
        k(   26) = (   0.0714286   0.1452463   0.0736583), wk =   0.0142857
        k(   27) = (   0.0714286   0.1452463  -0.1473166), wk =   0.0142857
        k(   28) = (   0.0714286   0.2178695   0.0000000), wk =   0.0142857
        k(   29) = (   0.0714286   0.2178695   0.0736583), wk =   0.0142857
        k(   30) = (   0.0714286   0.2178695  -0.1473166), wk =   0.0142857
        k(   31) = (   0.0714286   0.2904926   0.0000000), wk =   0.0142857
        k(   32) = (   0.0714286   0.2904926   0.0736583), wk =   0.0142857
        k(   33) = (   0.0714286   0.2904926  -0.1473166), wk =   0.0142857
        k(   34) = (   0.0714286  -0.3631158   0.0000000), wk =   0.0071429
        k(   35) = (   0.0714286  -0.3631158   0.0736583), wk =   0.0142857
        k(   36) = (   0.0714286  -0.3631158  -0.1473166), wk =   0.0071429
        k(   37) = (   0.1428571   0.0000000   0.0000000), wk =   0.0071429
        k(   38) = (   0.1428571   0.0000000   0.0736583), wk =   0.0142857
        k(   39) = (   0.1428571   0.0000000  -0.1473166), wk =   0.0071429
        k(   40) = (   0.1428571   0.0726232   0.0000000), wk =   0.0142857
        k(   41) = (   0.1428571   0.0726232   0.0736583), wk =   0.0142857
        k(   42) = (   0.1428571   0.0726232  -0.1473166), wk =   0.0142857
        k(   43) = (   0.1428571   0.1452463   0.0000000), wk =   0.0142857
        k(   44) = (   0.1428571   0.1452463   0.0736583), wk =   0.0142857
        k(   45) = (   0.1428571   0.1452463  -0.1473166), wk =   0.0142857
        k(   46) = (   0.1428571   0.2178695   0.0000000), wk =   0.0142857
        k(   47) = (   0.1428571   0.2178695   0.0736583), wk =   0.0142857
        k(   48) = (   0.1428571   0.2178695  -0.1473166), wk =   0.0142857
        k(   49) = (   0.1428571   0.2904926   0.0000000), wk =   0.0142857
        k(   50) = (   0.1428571   0.2904926   0.0736583), wk =   0.0142857
        k(   51) = (   0.1428571   0.2904926  -0.1473166), wk =   0.0142857
        k(   52) = (   0.1428571  -0.3631158   0.0000000), wk =   0.0071429
        k(   53) = (   0.1428571  -0.3631158   0.0736583), wk =   0.0142857
        k(   54) = (   0.1428571  -0.3631158  -0.1473166), wk =   0.0071429
        k(   55) = (   0.2142857   0.0000000   0.0000000), wk =   0.0071429
        k(   56) = (   0.2142857   0.0000000   0.0736583), wk =   0.0142857
        k(   57) = (   0.2142857   0.0000000  -0.1473166), wk =   0.0071429
        k(   58) = (   0.2142857   0.0726232   0.0000000), wk =   0.0142857
        k(   59) = (   0.2142857   0.0726232   0.0736583), wk =   0.0142857
        k(   60) = (   0.2142857   0.0726232  -0.1473166), wk =   0.0142857
        k(   61) = (   0.2142857   0.1452463   0.0000000), wk =   0.0142857
        k(   62) = (   0.2142857   0.1452463   0.0736583), wk =   0.0142857
        k(   63) = (   0.2142857   0.1452463  -0.1473166), wk =   0.0142857
        k(   64) = (   0.2142857   0.2178695   0.0000000), wk =   0.0142857
        k(   65) = (   0.2142857   0.2178695   0.0736583), wk =   0.0142857
        k(   66) = (   0.2142857   0.2178695  -0.1473166), wk =   0.0142857
        k(   67) = (   0.2142857   0.2904926   0.0000000), wk =   0.0142857
        k(   68) = (   0.2142857   0.2904926   0.0736583), wk =   0.0142857
        k(   69) = (   0.2142857   0.2904926  -0.1473166), wk =   0.0142857
        k(   70) = (   0.2142857  -0.3631158   0.0000000), wk =   0.0071429
        k(   71) = (   0.2142857  -0.3631158   0.0736583), wk =   0.0142857
        k(   72) = (   0.2142857  -0.3631158  -0.1473166), wk =   0.0071429
        k(   73) = (   0.2857143   0.0000000   0.0000000), wk =   0.0071429
        k(   74) = (   0.2857143   0.0000000   0.0736583), wk =   0.0142857
        k(   75) = (   0.2857143   0.0000000  -0.1473166), wk =   0.0071429
        k(   76) = (   0.2857143   0.0726232   0.0000000), wk =   0.0142857
        k(   77) = (   0.2857143   0.0726232   0.0736583), wk =   0.0142857
        k(   78) = (   0.2857143   0.0726232  -0.1473166), wk =   0.0142857
        k(   79) = (   0.2857143   0.1452463   0.0000000), wk =   0.0142857
        k(   80) = (   0.2857143   0.1452463   0.0736583), wk =   0.0142857
        k(   81) = (   0.2857143   0.1452463  -0.1473166), wk =   0.0142857
        k(   82) = (   0.2857143   0.2178695   0.0000000), wk =   0.0142857
        k(   83) = (   0.2857143   0.2178695   0.0736583), wk =   0.0142857
        k(   84) = (   0.2857143   0.2178695  -0.1473166), wk =   0.0142857
        k(   85) = (   0.2857143   0.2904926   0.0000000), wk =   0.0142857
        k(   86) = (   0.2857143   0.2904926   0.0736583), wk =   0.0142857
        k(   87) = (   0.2857143   0.2904926  -0.1473166), wk =   0.0142857
        k(   88) = (   0.2857143  -0.3631158   0.0000000), wk =   0.0071429
        k(   89) = (   0.2857143  -0.3631158   0.0736583), wk =   0.0142857
        k(   90) = (   0.2857143  -0.3631158  -0.1473166), wk =   0.0071429
        k(   91) = (   0.3571429   0.0000000   0.0000000), wk =   0.0071429
        k(   92) = (   0.3571429   0.0000000   0.0736583), wk =   0.0142857
        k(   93) = (   0.3571429   0.0000000  -0.1473166), wk =   0.0071429
        k(   94) = (   0.3571429   0.0726232   0.0000000), wk =   0.0142857
        k(   95) = (   0.3571429   0.0726232   0.0736583), wk =   0.0142857
        k(   96) = (   0.3571429   0.0726232  -0.1473166), wk =   0.0142857
        k(   97) = (   0.3571429   0.1452463   0.0000000), wk =   0.0142857
        k(   98) = (   0.3571429   0.1452463   0.0736583), wk =   0.0142857
        k(   99) = (   0.3571429   0.1452463  -0.1473166), wk =   0.0142857
        k(  100) = (   0.3571429   0.2178695   0.0000000), wk =   0.0142857
        k(  101) = (   0.3571429   0.2178695   0.0736583), wk =   0.0142857
        k(  102) = (   0.3571429   0.2178695  -0.1473166), wk =   0.0142857
        k(  103) = (   0.3571429   0.2904926   0.0000000), wk =   0.0142857
        k(  104) = (   0.3571429   0.2904926   0.0736583), wk =   0.0142857
        k(  105) = (   0.3571429   0.2904926  -0.1473166), wk =   0.0142857
        k(  106) = (   0.3571429  -0.3631158   0.0000000), wk =   0.0071429
        k(  107) = (   0.3571429  -0.3631158   0.0736583), wk =   0.0142857
        k(  108) = (   0.3571429  -0.3631158  -0.1473166), wk =   0.0071429
        k(  109) = (   0.4285714   0.0000000   0.0000000), wk =   0.0071429
        k(  110) = (   0.4285714   0.0000000   0.0736583), wk =   0.0142857
        k(  111) = (   0.4285714   0.0000000  -0.1473166), wk =   0.0071429
        k(  112) = (   0.4285714   0.0726232   0.0000000), wk =   0.0142857
        k(  113) = (   0.4285714   0.0726232   0.0736583), wk =   0.0142857
        k(  114) = (   0.4285714   0.0726232  -0.1473166), wk =   0.0142857
        k(  115) = (   0.4285714   0.1452463   0.0000000), wk =   0.0142857
        k(  116) = (   0.4285714   0.1452463   0.0736583), wk =   0.0142857
        k(  117) = (   0.4285714   0.1452463  -0.1473166), wk =   0.0142857
        k(  118) = (   0.4285714   0.2178695   0.0000000), wk =   0.0142857
        k(  119) = (   0.4285714   0.2178695   0.0736583), wk =   0.0142857
        k(  120) = (   0.4285714   0.2178695  -0.1473166), wk =   0.0142857
        k(  121) = (   0.4285714   0.2904926   0.0000000), wk =   0.0142857
        k(  122) = (   0.4285714   0.2904926   0.0736583), wk =   0.0142857
        k(  123) = (   0.4285714   0.2904926  -0.1473166), wk =   0.0142857
        k(  124) = (   0.4285714  -0.3631158   0.0000000), wk =   0.0071429
        k(  125) = (   0.4285714  -0.3631158   0.0736583), wk =   0.0142857
        k(  126) = (   0.4285714  -0.3631158  -0.1473166), wk =   0.0071429
        k(  127) = (  -0.5000000   0.0000000   0.0000000), wk =   0.0035714
        k(  128) = (  -0.5000000   0.0000000   0.0736583), wk =   0.0071429
        k(  129) = (  -0.5000000   0.0000000  -0.1473166), wk =   0.0035714
        k(  130) = (  -0.5000000   0.0726232   0.0000000), wk =   0.0071429
        k(  131) = (  -0.5000000   0.0726232   0.0736583), wk =   0.0071429
        k(  132) = (  -0.5000000   0.0726232  -0.1473166), wk =   0.0071429
        k(  133) = (  -0.5000000   0.1452463   0.0000000), wk =   0.0071429
        k(  134) = (  -0.5000000   0.1452463   0.0736583), wk =   0.0071429
        k(  135) = (  -0.5000000   0.1452463  -0.1473166), wk =   0.0071429
        k(  136) = (  -0.5000000   0.2178695   0.0000000), wk =   0.0071429
        k(  137) = (  -0.5000000   0.2178695   0.0736583), wk =   0.0071429
        k(  138) = (  -0.5000000   0.2178695  -0.1473166), wk =   0.0071429
        k(  139) = (  -0.5000000   0.2904926   0.0000000), wk =   0.0071429
        k(  140) = (  -0.5000000   0.2904926   0.0736583), wk =   0.0071429
        k(  141) = (  -0.5000000   0.2904926  -0.1473166), wk =   0.0071429
        k(  142) = (  -0.5000000  -0.3631158   0.0000000), wk =   0.0035714
        k(  143) = (  -0.5000000  -0.3631158   0.0736583), wk =   0.0071429
        k(  144) = (  -0.5000000  -0.3631158  -0.1473166), wk =   0.0035714
        k(  145) = (   0.0000000   0.0726232  -0.0736583), wk =   0.0071429
        k(  146) = (   0.0000000   0.1452463  -0.0736583), wk =   0.0071429
        k(  147) = (   0.0000000   0.2178695  -0.0736583), wk =   0.0071429
        k(  148) = (   0.0000000   0.2904926  -0.0736583), wk =   0.0071429
        k(  149) = (  -0.0714286   0.0726232  -0.0736583), wk =   0.0142857
        k(  150) = (  -0.0714286   0.1452463  -0.0736583), wk =   0.0142857
        k(  151) = (  -0.0714286   0.2178695  -0.0736583), wk =   0.0142857
        k(  152) = (  -0.0714286   0.2904926  -0.0736583), wk =   0.0142857
        k(  153) = (  -0.1428571   0.0726232  -0.0736583), wk =   0.0142857
        k(  154) = (  -0.1428571   0.1452463  -0.0736583), wk =   0.0142857
        k(  155) = (  -0.1428571   0.2178695  -0.0736583), wk =   0.0142857
        k(  156) = (  -0.1428571   0.2904926  -0.0736583), wk =   0.0142857
        k(  157) = (  -0.2142857   0.0726232  -0.0736583), wk =   0.0142857
        k(  158) = (  -0.2142857   0.1452463  -0.0736583), wk =   0.0142857
        k(  159) = (  -0.2142857   0.2178695  -0.0736583), wk =   0.0142857
        k(  160) = (  -0.2142857   0.2904926  -0.0736583), wk =   0.0142857
        k(  161) = (  -0.2857143   0.0726232  -0.0736583), wk =   0.0142857
        k(  162) = (  -0.2857143   0.1452463  -0.0736583), wk =   0.0142857
        k(  163) = (  -0.2857143   0.2178695  -0.0736583), wk =   0.0142857
        k(  164) = (  -0.2857143   0.2904926  -0.0736583), wk =   0.0142857
        k(  165) = (  -0.3571429   0.0726232  -0.0736583), wk =   0.0142857
        k(  166) = (  -0.3571429   0.1452463  -0.0736583), wk =   0.0142857
        k(  167) = (  -0.3571429   0.2178695  -0.0736583), wk =   0.0142857
        k(  168) = (  -0.3571429   0.2904926  -0.0736583), wk =   0.0142857
        k(  169) = (  -0.4285714   0.0726232  -0.0736583), wk =   0.0142857
        k(  170) = (  -0.4285714   0.1452463  -0.0736583), wk =   0.0142857
        k(  171) = (  -0.4285714   0.2178695  -0.0736583), wk =   0.0142857
        k(  172) = (  -0.4285714   0.2904926  -0.0736583), wk =   0.0142857
        k(  173) = (   0.5000000   0.0726232  -0.0736583), wk =   0.0071429
        k(  174) = (   0.5000000   0.1452463  -0.0736583), wk =   0.0071429
        k(  175) = (   0.5000000   0.2178695  -0.0736583), wk =   0.0071429
        k(  176) = (   0.5000000   0.2904926  -0.0736583), wk =   0.0071429

                       cryst. coord.
        k(    1) = (   0.0000000   0.0000000   0.0000000), wk =   0.0035714
        k(    2) = (   0.0000000   0.0000000   0.2500000), wk =   0.0071429
        k(    3) = (   0.0000000   0.0000000  -0.5000000), wk =   0.0035714
        k(    4) = (   0.0000000   0.1000000   0.0000000), wk =   0.0071429
        k(    5) = (   0.0000000   0.1000000   0.2500000), wk =   0.0071429
        k(    6) = (   0.0000000   0.1000000  -0.5000000), wk =   0.0071429
        k(    7) = (   0.0000000   0.2000000   0.0000000), wk =   0.0071429
        k(    8) = (   0.0000000   0.2000000   0.2500000), wk =   0.0071429
        k(    9) = (   0.0000000   0.2000000  -0.5000000), wk =   0.0071429
        k(   10) = (   0.0000000   0.3000000   0.0000000), wk =   0.0071429
        k(   11) = (   0.0000000   0.3000000   0.2500000), wk =   0.0071429
        k(   12) = (   0.0000000   0.3000000  -0.5000000), wk =   0.0071429
        k(   13) = (   0.0000000   0.4000000   0.0000000), wk =   0.0071429
        k(   14) = (   0.0000000   0.4000000   0.2500000), wk =   0.0071429
        k(   15) = (   0.0000000   0.4000000  -0.5000000), wk =   0.0071429
        k(   16) = (   0.0000000  -0.5000000   0.0000000), wk =   0.0035714
        k(   17) = (   0.0000000  -0.5000000   0.2500000), wk =   0.0071429
        k(   18) = (   0.0000000  -0.5000000  -0.5000000), wk =   0.0035714
        k(   19) = (   0.0714286   0.0000000   0.0000000), wk =   0.0071429
        k(   20) = (   0.0714286   0.0000000   0.2500000), wk =   0.0142857
        k(   21) = (   0.0714286   0.0000000  -0.5000000), wk =   0.0071429
        k(   22) = (   0.0714286   0.1000000   0.0000000), wk =   0.0142857
        k(   23) = (   0.0714286   0.1000000   0.2500000), wk =   0.0142857
        k(   24) = (   0.0714286   0.1000000  -0.5000000), wk =   0.0142857
        k(   25) = (   0.0714286   0.2000000   0.0000000), wk =   0.0142857
        k(   26) = (   0.0714286   0.2000000   0.2500000), wk =   0.0142857
        k(   27) = (   0.0714286   0.2000000  -0.5000000), wk =   0.0142857
        k(   28) = (   0.0714286   0.3000000   0.0000000), wk =   0.0142857
        k(   29) = (   0.0714286   0.3000000   0.2500000), wk =   0.0142857
        k(   30) = (   0.0714286   0.3000000  -0.5000000), wk =   0.0142857
        k(   31) = (   0.0714286   0.4000000   0.0000000), wk =   0.0142857
        k(   32) = (   0.0714286   0.4000000   0.2500000), wk =   0.0142857
        k(   33) = (   0.0714286   0.4000000  -0.5000000), wk =   0.0142857
        k(   34) = (   0.0714286  -0.5000000   0.0000000), wk =   0.0071429
        k(   35) = (   0.0714286  -0.5000000   0.2500000), wk =   0.0142857
        k(   36) = (   0.0714286  -0.5000000  -0.5000000), wk =   0.0071429
        k(   37) = (   0.1428571   0.0000000   0.0000000), wk =   0.0071429
        k(   38) = (   0.1428571   0.0000000   0.2500000), wk =   0.0142857
        k(   39) = (   0.1428571   0.0000000  -0.5000000), wk =   0.0071429
        k(   40) = (   0.1428571   0.1000000   0.0000000), wk =   0.0142857
        k(   41) = (   0.1428571   0.1000000   0.2500000), wk =   0.0142857
        k(   42) = (   0.1428571   0.1000000  -0.5000000), wk =   0.0142857
        k(   43) = (   0.1428571   0.2000000   0.0000000), wk =   0.0142857
        k(   44) = (   0.1428571   0.2000000   0.2500000), wk =   0.0142857
        k(   45) = (   0.1428571   0.2000000  -0.5000000), wk =   0.0142857
        k(   46) = (   0.1428571   0.3000000   0.0000000), wk =   0.0142857
        k(   47) = (   0.1428571   0.3000000   0.2500000), wk =   0.0142857
        k(   48) = (   0.1428571   0.3000000  -0.5000000), wk =   0.0142857
        k(   49) = (   0.1428571   0.4000000   0.0000000), wk =   0.0142857
        k(   50) = (   0.1428571   0.4000000   0.2500000), wk =   0.0142857
        k(   51) = (   0.1428571   0.4000000  -0.5000000), wk =   0.0142857
        k(   52) = (   0.1428571  -0.5000000   0.0000000), wk =   0.0071429
        k(   53) = (   0.1428571  -0.5000000   0.2500000), wk =   0.0142857
        k(   54) = (   0.1428571  -0.5000000  -0.5000000), wk =   0.0071429
        k(   55) = (   0.2142857   0.0000000   0.0000000), wk =   0.0071429
        k(   56) = (   0.2142857   0.0000000   0.2500000), wk =   0.0142857
        k(   57) = (   0.2142857   0.0000000  -0.5000000), wk =   0.0071429
        k(   58) = (   0.2142857   0.1000000   0.0000000), wk =   0.0142857
        k(   59) = (   0.2142857   0.1000000   0.2500000), wk =   0.0142857
        k(   60) = (   0.2142857   0.1000000  -0.5000000), wk =   0.0142857
        k(   61) = (   0.2142857   0.2000000   0.0000000), wk =   0.0142857
        k(   62) = (   0.2142857   0.2000000   0.2500000), wk =   0.0142857
        k(   63) = (   0.2142857   0.2000000  -0.5000000), wk =   0.0142857
        k(   64) = (   0.2142857   0.3000000   0.0000000), wk =   0.0142857
        k(   65) = (   0.2142857   0.3000000   0.2500000), wk =   0.0142857
        k(   66) = (   0.2142857   0.3000000  -0.5000000), wk =   0.0142857
        k(   67) = (   0.2142857   0.4000000   0.0000000), wk =   0.0142857
        k(   68) = (   0.2142857   0.4000000   0.2500000), wk =   0.0142857
        k(   69) = (   0.2142857   0.4000000  -0.5000000), wk =   0.0142857
        k(   70) = (   0.2142857  -0.5000000   0.0000000), wk =   0.0071429
        k(   71) = (   0.2142857  -0.5000000   0.2500000), wk =   0.0142857
        k(   72) = (   0.2142857  -0.5000000  -0.5000000), wk =   0.0071429
        k(   73) = (   0.2857143   0.0000000   0.0000000), wk =   0.0071429
        k(   74) = (   0.2857143   0.0000000   0.2500000), wk =   0.0142857
        k(   75) = (   0.2857143   0.0000000  -0.5000000), wk =   0.0071429
        k(   76) = (   0.2857143   0.1000000   0.0000000), wk =   0.0142857
        k(   77) = (   0.2857143   0.1000000   0.2500000), wk =   0.0142857
        k(   78) = (   0.2857143   0.1000000  -0.5000000), wk =   0.0142857
        k(   79) = (   0.2857143   0.2000000   0.0000000), wk =   0.0142857
        k(   80) = (   0.2857143   0.2000000   0.2500000), wk =   0.0142857
        k(   81) = (   0.2857143   0.2000000  -0.5000000), wk =   0.0142857
        k(   82) = (   0.2857143   0.3000000   0.0000000), wk =   0.0142857
        k(   83) = (   0.2857143   0.3000000   0.2500000), wk =   0.0142857
        k(   84) = (   0.2857143   0.3000000  -0.5000000), wk =   0.0142857
        k(   85) = (   0.2857143   0.4000000   0.0000000), wk =   0.0142857
        k(   86) = (   0.2857143   0.4000000   0.2500000), wk =   0.0142857
        k(   87) = (   0.2857143   0.4000000  -0.5000000), wk =   0.0142857
        k(   88) = (   0.2857143  -0.5000000   0.0000000), wk =   0.0071429
        k(   89) = (   0.2857143  -0.5000000   0.2500000), wk =   0.0142857
        k(   90) = (   0.2857143  -0.5000000  -0.5000000), wk =   0.0071429
        k(   91) = (   0.3571429   0.0000000   0.0000000), wk =   0.0071429
        k(   92) = (   0.3571429   0.0000000   0.2500000), wk =   0.0142857
        k(   93) = (   0.3571429   0.0000000  -0.5000000), wk =   0.0071429
        k(   94) = (   0.3571429   0.1000000   0.0000000), wk =   0.0142857
        k(   95) = (   0.3571429   0.1000000   0.2500000), wk =   0.0142857
        k(   96) = (   0.3571429   0.1000000  -0.5000000), wk =   0.0142857
        k(   97) = (   0.3571429   0.2000000   0.0000000), wk =   0.0142857
        k(   98) = (   0.3571429   0.2000000   0.2500000), wk =   0.0142857
        k(   99) = (   0.3571429   0.2000000  -0.5000000), wk =   0.0142857
        k(  100) = (   0.3571429   0.3000000   0.0000000), wk =   0.0142857
        k(  101) = (   0.3571429   0.3000000   0.2500000), wk =   0.0142857
        k(  102) = (   0.3571429   0.3000000  -0.5000000), wk =   0.0142857
        k(  103) = (   0.3571429   0.4000000   0.0000000), wk =   0.0142857
        k(  104) = (   0.3571429   0.4000000   0.2500000), wk =   0.0142857
        k(  105) = (   0.3571429   0.4000000  -0.5000000), wk =   0.0142857
        k(  106) = (   0.3571429  -0.5000000   0.0000000), wk =   0.0071429
        k(  107) = (   0.3571429  -0.5000000   0.2500000), wk =   0.0142857
        k(  108) = (   0.3571429  -0.5000000  -0.5000000), wk =   0.0071429
        k(  109) = (   0.4285714   0.0000000   0.0000000), wk =   0.0071429
        k(  110) = (   0.4285714   0.0000000   0.2500000), wk =   0.0142857
        k(  111) = (   0.4285714   0.0000000  -0.5000000), wk =   0.0071429
        k(  112) = (   0.4285714   0.1000000   0.0000000), wk =   0.0142857
        k(  113) = (   0.4285714   0.1000000   0.2500000), wk =   0.0142857
        k(  114) = (   0.4285714   0.1000000  -0.5000000), wk =   0.0142857
        k(  115) = (   0.4285714   0.2000000   0.0000000), wk =   0.0142857
        k(  116) = (   0.4285714   0.2000000   0.2500000), wk =   0.0142857
        k(  117) = (   0.4285714   0.2000000  -0.5000000), wk =   0.0142857
        k(  118) = (   0.4285714   0.3000000   0.0000000), wk =   0.0142857
        k(  119) = (   0.4285714   0.3000000   0.2500000), wk =   0.0142857
        k(  120) = (   0.4285714   0.3000000  -0.5000000), wk =   0.0142857
        k(  121) = (   0.4285714   0.4000000   0.0000000), wk =   0.0142857
        k(  122) = (   0.4285714   0.4000000   0.2500000), wk =   0.0142857
        k(  123) = (   0.4285714   0.4000000  -0.5000000), wk =   0.0142857
        k(  124) = (   0.4285714  -0.5000000   0.0000000), wk =   0.0071429
        k(  125) = (   0.4285714  -0.5000000   0.2500000), wk =   0.0142857
        k(  126) = (   0.4285714  -0.5000000  -0.5000000), wk =   0.0071429
        k(  127) = (  -0.5000000   0.0000000   0.0000000), wk =   0.0035714
        k(  128) = (  -0.5000000   0.0000000   0.2500000), wk =   0.0071429
        k(  129) = (  -0.5000000   0.0000000  -0.5000000), wk =   0.0035714
        k(  130) = (  -0.5000000   0.1000000   0.0000000), wk =   0.0071429
        k(  131) = (  -0.5000000   0.1000000   0.2500000), wk =   0.0071429
        k(  132) = (  -0.5000000   0.1000000  -0.5000000), wk =   0.0071429
        k(  133) = (  -0.5000000   0.2000000   0.0000000), wk =   0.0071429
        k(  134) = (  -0.5000000   0.2000000   0.2500000), wk =   0.0071429
        k(  135) = (  -0.5000000   0.2000000  -0.5000000), wk =   0.0071429
        k(  136) = (  -0.5000000   0.3000000   0.0000000), wk =   0.0071429
        k(  137) = (  -0.5000000   0.3000000   0.2500000), wk =   0.0071429
        k(  138) = (  -0.5000000   0.3000000  -0.5000000), wk =   0.0071429
        k(  139) = (  -0.5000000   0.4000000   0.0000000), wk =   0.0071429
        k(  140) = (  -0.5000000   0.4000000   0.2500000), wk =   0.0071429
        k(  141) = (  -0.5000000   0.4000000  -0.5000000), wk =   0.0071429
        k(  142) = (  -0.5000000  -0.5000000   0.0000000), wk =   0.0035714
        k(  143) = (  -0.5000000  -0.5000000   0.2500000), wk =   0.0071429
        k(  144) = (  -0.5000000  -0.5000000  -0.5000000), wk =   0.0035714
        k(  145) = (   0.0000000   0.1000000  -0.2500000), wk =   0.0071429
        k(  146) = (   0.0000000   0.2000000  -0.2500000), wk =   0.0071429
        k(  147) = (   0.0000000   0.3000000  -0.2500000), wk =   0.0071429
        k(  148) = (   0.0000000   0.4000000  -0.2500000), wk =   0.0071429
        k(  149) = (  -0.0714286   0.1000000  -0.2500000), wk =   0.0142857
        k(  150) = (  -0.0714286   0.2000000  -0.2500000), wk =   0.0142857
        k(  151) = (  -0.0714286   0.3000000  -0.2500000), wk =   0.0142857
        k(  152) = (  -0.0714286   0.4000000  -0.2500000), wk =   0.0142857
        k(  153) = (  -0.1428571   0.1000000  -0.2500000), wk =   0.0142857
        k(  154) = (  -0.1428571   0.2000000  -0.2500000), wk =   0.0142857
        k(  155) = (  -0.1428571   0.3000000  -0.2500000), wk =   0.0142857
        k(  156) = (  -0.1428571   0.4000000  -0.2500000), wk =   0.0142857
        k(  157) = (  -0.2142857   0.1000000  -0.2500000), wk =   0.0142857
        k(  158) = (  -0.2142857   0.2000000  -0.2500000), wk =   0.0142857
        k(  159) = (  -0.2142857   0.3000000  -0.2500000), wk =   0.0142857
        k(  160) = (  -0.2142857   0.4000000  -0.2500000), wk =   0.0142857
        k(  161) = (  -0.2857143   0.1000000  -0.2500000), wk =   0.0142857
        k(  162) = (  -0.2857143   0.2000000  -0.2500000), wk =   0.0142857
        k(  163) = (  -0.2857143   0.3000000  -0.2500000), wk =   0.0142857
        k(  164) = (  -0.2857143   0.4000000  -0.2500000), wk =   0.0142857
        k(  165) = (  -0.3571429   0.1000000  -0.2500000), wk =   0.0142857
        k(  166) = (  -0.3571429   0.2000000  -0.2500000), wk =   0.0142857
        k(  167) = (  -0.3571429   0.3000000  -0.2500000), wk =   0.0142857
        k(  168) = (  -0.3571429   0.4000000  -0.2500000), wk =   0.0142857
        k(  169) = (  -0.4285714   0.1000000  -0.2500000), wk =   0.0142857
        k(  170) = (  -0.4285714   0.2000000  -0.2500000), wk =   0.0142857
        k(  171) = (  -0.4285714   0.3000000  -0.2500000), wk =   0.0142857
        k(  172) = (  -0.4285714   0.4000000  -0.2500000), wk =   0.0142857
        k(  173) = (   0.5000000   0.1000000  -0.2500000), wk =   0.0071429
        k(  174) = (   0.5000000   0.2000000  -0.2500000), wk =   0.0071429
        k(  175) = (   0.5000000   0.3000000  -0.2500000), wk =   0.0071429
        k(  176) = (   0.5000000   0.4000000  -0.2500000), wk =   0.0071429

     Dense  grid:    39043 G-vectors     FFT dimensions: (  25,  36,  90)

     Dynamical RAM for                 wfc:       1.24 MB

     Dynamical RAM for     wfc (w. buffer):       1.24 MB

     Dynamical RAM for           str. fact:       0.10 MB

     Dynamical RAM for           local pot:       0.00 MB

     Dynamical RAM for          nlocal pot:       0.49 MB

     Dynamical RAM for                qrad:       0.17 MB

     Dynamical RAM for          rho,v,vnew:       0.61 MB

     Dynamical RAM for           G-vectors:       0.42 MB

     Dynamical RAM for          h,s,v(r/c):       7.32 MB

     Dynamical RAM for          <psi|beta>:       0.06 MB

     Dynamical RAM for                 psi:       4.95 MB

     Dynamical RAM for                hpsi:       4.95 MB

     Dynamical RAM for      wfcinit/wfcrot:       2.70 MB

     Estimated static dynamical RAM per process >       3.75 MB

     Estimated max dynamical RAM per process >      21.03 MB

     Estimated total dynamical RAM >       1.73 GB

     The potential is recalculated from file :
     run_output/BP.save/charge-density

     Starting wfcs are   72 randomized atomic wfcs +   28 random wfcs

     Band Structure Calculation
     Davidson diagonalization with overlap

     Computing kpt #:     1  of    13 on this pool
     total cpu time spent up to now is        5.2 secs

     Computing kpt #:     2  of    13 on this pool
     total cpu time spent up to now is        8.4 secs

     Computing kpt #:     3  of    13 on this pool
     total cpu time spent up to now is       11.5 secs

     Computing kpt #:     4  of    13 on this pool
     total cpu time spent up to now is       14.7 secs

     Computing kpt #:     5  of    13 on this pool
     total cpu time spent up to now is       17.9 secs

     Computing kpt #:     6  of    13 on this pool
     total cpu time spent up to now is       21.1 secs

     Computing kpt #:     7  of    13 on this pool
     total cpu time spent up to now is       24.2 secs

     Computing kpt #:     8  of    13 on this pool
     total cpu time spent up to now is       27.3 secs

     Computing kpt #:     9  of    13 on this pool
     total cpu time spent up to now is       30.5 secs

     Computing kpt #:    10  of    13 on this pool
     total cpu time spent up to now is       33.6 secs

     Computing kpt #:    11  of    13 on this pool
     total cpu time spent up to now is       46.9 secs

     Computing kpt #:    12  of    13 on this pool
     total cpu time spent up to now is       50.2 secs

     Computing kpt #:    13  of    13 on this pool
     total cpu time spent up to now is       53.1 secs

     ethr =  5.00E-06,  avg # of iterations = 11.4

     total cpu time spent up to now is       53.3 secs

     End of band structure calculation

          k = 0.0000 0.0000 0.0000 (  4895 PWs)   bands (ev):

    -9.1645  -9.0580  -6.7533  -6.4942  -3.2359  -3.1703  -0.1397   0.4752
     0.9837   1.0352   1.4152   1.6139   2.4696   2.5460   3.7357   4.0428
     4.1704   4.7738   5.3569   6.3875   6.4866   7.0843   7.3560   7.5496
     8.4258   8.5921   9.1903   9.2745  11.4707  11.7680  11.9321  11.9888
    11.9984  12.6178  13.1261  13.5578  13.6533  13.6669  14.0819  14.6176
    14.6781  14.6821  15.1836  15.3019  15.4365  16.9368  16.9655  17.0015
    17.7969  17.9710  18.0746  18.4685  19.3832  19.5183  19.6270  20.0939
    20.2268  20.7290  21.2448  21.2683  21.7682  22.0474  22.2351  22.3456
    22.4322  22.4892  23.0326  23.1844  23.2767  23.5475  24.3347  24.9697
    25.3325  25.4438  25.5782  25.9275  26.3526  27.0396  27.1928  27.3338
    27.4188  27.5966  28.1232  28.1721  28.3909  28.8793  29.9487  30.6182
    30.7009  31.0289  31.0640  31.6871  31.9416  32.0098  32.0234  32.6082
    32.7916  32.8207  32.8760  32.9799

     occupation numbers 
     1.0000   1.0000   1.0000   1.0000   1.0000   1.0000   1.0000   1.0000
     1.0000   1.0000   1.0000   1.0000   1.0000   1.0000   1.0000   1.0000
     1.0000   1.0000   1.0000   1.0000   0.0000   0.0000   0.0000   0.0000
     0.0000   0.0000   0.0000   0.0000   0.0000   0.0000   0.0000   0.0000
     0.0000   0.0000   0.0000   0.0000   0.0000   0.0000   0.0000   0.0000
     0.0000   0.0000   0.0000   0.0000   0.0000   0.0000   0.0000   0.0000
     0.0000   0.0000   0.0000   0.0000   0.0000   0.0000   0.0000   0.0000
     0.0000   0.0000   0.0000   0.0000   0.0000   0.0000   0.0000   0.0000
     0.0000   0.0000   0.0000   0.0000   0.0000   0.0000   0.0000   0.0000
     0.0000   0.0000   0.0000   0.0000   0.0000   0.0000   0.0000   0.0000
     0.0000   0.0000   0.0000   0.0000   0.0000   0.0000   0.0000   0.0000
     0.0000   0.0000   0.0000   0.0000   0.0000   0.0000   0.0000   0.0000
     0.0000   0.0000   0.0000   0.0000

          k = 0.0000 0.0000 0.0737 (  4881 PWs)   bands (ev):

    -9.1499  -9.0747  -6.7151  -6.5320  -3.2266  -3.1802  -0.0767   0.3270
     1.0408   1.1897   1.3447   1.5715   2.4802   2.5341   3.8049   4.0622
     4.1522   4.4902   5.5007   6.2241   6.7676   7.1251   7.3800   7.5158
     8.4582   8.5755   9.2019   9.2614  11.2057  11.8015  11.9643  12.1136
    12.1742  12.4959  12.5975  13.6418  13.6813  13.6930  13.9750  14.3566
    14.8185  15.2217  15.2416  15.3982  15.4723  17.0329  17.0775  17.0891
    17.6862  17.8021  18.1222  18.5964  19.3666  19.4254  19.7702  20.2193
    20.2277  20.5639  20.6286  21.0247  21.1134  21.9409  22.0704  22.5505
    22.6862  22.6954  22.9266  23.0306  23.9193  24.2702  24.7695  25.1249
    25.2325  25.3303  25.5794  25.8270  26.1422  26.4979  26.9922  27.0139
    27.0196  27.9428  28.1833  28.6068  28.8326  29.4555  30.2334  30.4405
    31.0214  31.0244  31.0265  31.4455  31.5337  31.5422  32.1308  32.2373
    32.2690  32.4982  32.6017  32.9398

     occupation numbers 
     1.0000   1.0000   1.0000   1.0000   1.0000   1.0000   1.0000   1.0000
     1.0000   1.0000   1.0000   1.0000   1.0000   1.0000   1.0000   1.0000
     1.0000   1.0000   1.0000   1.0000   0.0000   0.0000   0.0000   0.0000
     0.0000   0.0000   0.0000   0.0000   0.0000   0.0000   0.0000   0.0000
     0.0000   0.0000   0.0000   0.0000   0.0000   0.0000   0.0000   0.0000
     0.0000   0.0000   0.0000   0.0000   0.0000   0.0000   0.0000   0.0000
     0.0000   0.0000   0.0000   0.0000   0.0000   0.0000   0.0000   0.0000
     0.0000   0.0000   0.0000   0.0000   0.0000   0.0000   0.0000   0.0000
     0.0000   0.0000   0.0000   0.0000   0.0000   0.0000   0.0000   0.0000
     0.0000   0.0000   0.0000   0.0000   0.0000   0.0000   0.0000   0.0000
     0.0000   0.0000   0.0000   0.0000   0.0000   0.0000   0.0000   0.0000
     0.0000   0.0000   0.0000   0.0000   0.0000   0.0000   0.0000   0.0000
     0.0000   0.0000   0.0000   0.0000

          k = 0.0000 0.0000-0.1473 (  4902 PWs)   bands (ev):

    -9.1133  -9.1133  -6.6234  -6.6234  -3.2038  -3.2038   0.0951   0.0951
     1.1861   1.1861   1.4237   1.4237   2.5064   2.5064   4.0597   4.0597
     4.1076   4.1076   5.8528   5.8529   7.0920   7.0920   7.4430   7.4431
     8.5241   8.5241   9.2310   9.2310  11.3439  11.3439  11.8826  11.8826
    12.4460  12.4460  13.1710  13.1710  13.8080  13.8080  13.8655  13.8655
    15.0617  15.0617  15.3086  15.3086  16.7131  16.7131  17.2870  17.2870
    17.3716  17.3716  18.5902  18.5902  19.4410  19.4410  19.7699  19.7699
    20.0991  20.0991  20.5860  20.5860  21.6911  21.6911  22.1726  22.1726
    22.5153  22.5153  23.7479  23.7479  23.8502  23.8502  24.9486  24.9486
    25.8358  25.8358  25.9215  25.9215  26.1575  26.1575  26.3575  26.3575
    27.0397  27.0397  29.3280  29.3280  29.4200  29.4200  30.3944  30.3944
    30.4779  30.4779  31.0091  31.0091  31.7641  31.7641  31.9002  31.9002
    32.1962  32.1962  32.5286  32.5286

     occupation numbers 
     1.0000   1.0000   1.0000   1.0000   1.0000   1.0000   1.0000   1.0000
     1.0000   1.0000   1.0000   1.0000   1.0000   1.0000   1.0000   1.0000
     1.0000   1.0000   1.0000   1.0000   0.0000   0.0000   0.0000   0.0000
     0.0000   0.0000   0.0000   0.0000   0.0000   0.0000   0.0000   0.0000
     0.0000   0.0000   0.0000   0.0000   0.0000   0.0000   0.0000   0.0000
     0.0000   0.0000   0.0000   0.0000   0.0000   0.0000   0.0000   0.0000
     0.0000   0.0000   0.0000   0.0000   0.0000   0.0000   0.0000   0.0000
     0.0000   0.0000   0.0000   0.0000   0.0000   0.0000   0.0000   0.0000
     0.0000   0.0000   0.0000   0.0000   0.0000   0.0000   0.0000   0.0000
     0.0000   0.0000   0.0000   0.0000   0.0000   0.0000   0.0000   0.0000
     0.0000   0.0000   0.0000   0.0000   0.0000   0.0000   0.0000   0.0000
     0.0000   0.0000   0.0000   0.0000   0.0000   0.0000   0.0000   0.0000
     0.0000   0.0000   0.0000   0.0000

          k = 0.0000 0.0726 0.0000 (  4881 PWs)   bands (ev):

    -9.1135  -9.0086  -6.8009  -6.5718  -3.2456  -3.2368  -0.2611  -0.0938
     1.2711   1.2919   1.4779   1.8250   2.5091   2.5840   4.0161   4.0644
     4.1334   4.9301   4.9655   5.9351   6.8842   7.4073   7.4217   7.6801
     8.3380   8.4665   9.1553   9.2137  11.0576  11.4830  11.6280  11.7177
    12.1781  12.7224  13.4861  13.5855  13.8094  13.8527  14.3729  14.4450
    14.8735  14.9111  15.0451  15.0707  15.5274  17.0765  17.1333  17.2429
    17.9720  18.2173  18.2823  18.6710  18.9908  19.1071  19.1919  19.4088
    20.3880  20.9067  20.9859  21.1454  21.2167  21.5401  22.0006  22.2593
    22.3552  22.5761  23.0921  23.1428  23.9694  24.2165  24.5379  24.5387
    24.7148  25.7985  26.2292  26.2307  26.7125  27.0153  27.1764  27.4055
    27.6052  27.6565  28.5320  28.5599  28.8428  28.9899  29.9432  30.0199
    30.1154  30.2407  30.2987  30.7821  30.8418  31.0992  31.2503  31.7813
    33.0185  33.1264  33.2555  33.2673

     occupation numbers 
     1.0000   1.0000   1.0000   1.0000   1.0000   1.0000   1.0000   1.0000
     1.0000   1.0000   1.0000   1.0000   1.0000   1.0000   1.0000   1.0000
     1.0000   1.0000   1.0000   1.0000   0.0000   0.0000   0.0000   0.0000
     0.0000   0.0000   0.0000   0.0000   0.0000   0.0000   0.0000   0.0000
     0.0000   0.0000   0.0000   0.0000   0.0000   0.0000   0.0000   0.0000
     0.0000   0.0000   0.0000   0.0000   0.0000   0.0000   0.0000   0.0000
     0.0000   0.0000   0.0000   0.0000   0.0000   0.0000   0.0000   0.0000
     0.0000   0.0000   0.0000   0.0000   0.0000   0.0000   0.0000   0.0000
     0.0000   0.0000   0.0000   0.0000   0.0000   0.0000   0.0000   0.0000
     0.0000   0.0000   0.0000   0.0000   0.0000   0.0000   0.0000   0.0000
     0.0000   0.0000   0.0000   0.0000   0.0000   0.0000   0.0000   0.0000
     0.0000   0.0000   0.0000   0.0000   0.0000   0.0000   0.0000   0.0000
     0.0000   0.0000   0.0000   0.0000

          k = 0.0000 0.0726 0.0737 (  4890 PWs)   bands (ev):

    -9.0991  -9.0250  -6.7667  -6.6047  -3.2460  -3.2397  -0.2230  -0.1020
     1.1808   1.2342   1.6156   1.8257   2.5194   2.5723   4.0337   4.1086
     4.1168   4.6703   5.1169   5.8364   7.1034   7.4269   7.4417   7.6404
     8.3654   8.4568   9.1632   9.2043  11.0646  11.5173  11.6830  11.7691
    11.9787  12.5295  12.9854  13.8192  13.9021  14.0052  14.1969  14.2412
    14.9054  15.0350  15.0630  15.4741  15.7197  17.1872  17.2114  17.3141
    17.9590  18.0016  18.1891  18.6138  19.0710  19.2188  19.2998  19.5431
    20.5385  20.6465  20.7918  21.1322  21.1381  21.1424  21.2722  22.1470
    22.3301  22.5187  23.3002  23.4345  23.9698  24.7160  24.7197  24.9059
    25.1557  25.9928  26.1106  26.2705  26.4239  26.7953  26.8259  26.9269
    27.2882  27.9493  28.8267  28.8680  29.0321  29.3080  29.7617  29.9810
    30.0702  30.1440  30.6908  30.8235  31.1320  31.1800  31.3426  31.7114
    31.9213  32.4312  32.8633  32.9662

     occupation numbers 
     1.0000   1.0000   1.0000   1.0000   1.0000   1.0000   1.0000   1.0000
     1.0000   1.0000   1.0000   1.0000   1.0000   1.0000   1.0000   1.0000
     1.0000   1.0000   1.0000   1.0000   0.0000   0.0000   0.0000   0.0000
     0.0000   0.0000   0.0000   0.0000   0.0000   0.0000   0.0000   0.0000
     0.0000   0.0000   0.0000   0.0000   0.0000   0.0000   0.0000   0.0000
     0.0000   0.0000   0.0000   0.0000   0.0000   0.0000   0.0000   0.0000
     0.0000   0.0000   0.0000   0.0000   0.0000   0.0000   0.0000   0.0000
     0.0000   0.0000   0.0000   0.0000   0.0000   0.0000   0.0000   0.0000
     0.0000   0.0000   0.0000   0.0000   0.0000   0.0000   0.0000   0.0000
     0.0000   0.0000   0.0000   0.0000   0.0000   0.0000   0.0000   0.0000
     0.0000   0.0000   0.0000   0.0000   0.0000   0.0000   0.0000   0.0000
     0.0000   0.0000   0.0000   0.0000   0.0000   0.0000   0.0000   0.0000
     0.0000   0.0000   0.0000   0.0000

          k = 0.0000 0.0726-0.1473 (  4906 PWs)   bands (ev):

    -9.0631  -9.0631  -6.6851  -6.6851  -3.2446  -3.2446  -0.1475  -0.1475
     1.1539   1.1539   1.7698   1.7698   2.5452   2.5452   4.0759   4.0759
     4.3007   4.3007   5.4830   5.4830   7.4174   7.4174   7.5045   7.5045
     8.4192   8.4192   9.1829   9.1830  11.3259  11.3259  11.6000  11.6000
    12.1272  12.1272  13.5043  13.5043  13.9465  13.9465  14.0425  14.0425
    14.9560  14.9560  15.3054  15.3054  17.0602  17.0602  17.2857  17.2857
    17.5617  17.5618  18.4901  18.4901  19.4867  19.4867  19.5156  19.5156
    19.8715  19.8715  20.8519  20.8519  21.1063  21.1063  21.8224  21.8224
    22.5243  22.5243  22.9459  22.9459  24.6308  24.6308  25.4794  25.4794
    25.7481  25.7481  26.1236  26.1236  26.4181  26.4181  26.6546  26.6546
    27.3092  27.3092  29.2041  29.2041  29.2703  29.2703  29.9693  29.9693
    30.1392  30.1392  30.8181  30.8181  31.2480  31.2480  31.3275  31.3275
    32.0490  32.0490  32.6505  32.6505

     occupation numbers 
     1.0000   1.0000   1.0000   1.0000   1.0000   1.0000   1.0000   1.0000
     1.0000   1.0000   1.0000   1.0000   1.0000   1.0000   1.0000   1.0000
     1.0000   1.0000   1.0000   1.0000   0.0000   0.0000   0.0000   0.0000
     0.0000   0.0000   0.0000   0.0000   0.0000   0.0000   0.0000   0.0000
     0.0000   0.0000   0.0000   0.0000   0.0000   0.0000   0.0000   0.0000
     0.0000   0.0000   0.0000   0.0000   0.0000   0.0000   0.0000   0.0000
     0.0000   0.0000   0.0000   0.0000   0.0000   0.0000   0.0000   0.0000
     0.0000   0.0000   0.0000   0.0000   0.0000   0.0000   0.0000   0.0000
     0.0000   0.0000   0.0000   0.0000   0.0000   0.0000   0.0000   0.0000
     0.0000   0.0000   0.0000   0.0000   0.0000   0.0000   0.0000   0.0000
     0.0000   0.0000   0.0000   0.0000   0.0000   0.0000   0.0000   0.0000
     0.0000   0.0000   0.0000   0.0000   0.0000   0.0000   0.0000   0.0000
     0.0000   0.0000   0.0000   0.0000

          k = 0.0000 0.1452 0.0000 (  4867 PWs)   bands (ev):

    -8.9626  -8.8625  -6.9529  -6.7994  -3.3439  -3.2231  -0.8651  -0.6574
     1.2179   1.8882   2.0586   2.3914   2.6255   2.6949   3.9320   4.0217
     4.2420   4.7467   5.3094   5.3808   7.2333   7.6391   7.6797   8.0835
     8.1333   8.3583   9.0923   9.0972  10.2904  10.8964  11.1398  11.7105
    12.0323  12.7988  13.4534  13.7357  14.1515  14.2457  14.3485  14.5684
    14.5838  14.9746  15.5362  15.9031  16.1396  16.9860  17.0955  17.8911
    17.9553  18.2970  18.4696  18.4771  18.6165  18.7953  19.0671  19.3039
    19.7346  19.9597  20.2117  20.4628  21.2617  21.4831  21.8591  22.1090
    22.2662  22.5367  23.5860  23.6733  23.9858  24.3535  24.6012  24.8628
    25.2633  25.7903  25.7973  26.6109  26.7148  27.0051  27.2971  27.8782
    28.2173  28.2669  28.4300  28.5491  28.8790  29.0351  29.2452  29.5197
    29.5746  29.6455  29.9750  30.1133  30.1283  30.2483  30.9067  31.2126
    32.1768  32.5902  32.7663  32.9719

     occupation numbers 
     1.0000   1.0000   1.0000   1.0000   1.0000   1.0000   1.0000   1.0000
     1.0000   1.0000   1.0000   1.0000   1.0000   1.0000   1.0000   1.0000
     1.0000   1.0000   1.0000   1.0000   0.0000   0.0000   0.0000   0.0000
     0.0000   0.0000   0.0000   0.0000   0.0000   0.0000   0.0000   0.0000
     0.0000   0.0000   0.0000   0.0000   0.0000   0.0000   0.0000   0.0000
     0.0000   0.0000   0.0000   0.0000   0.0000   0.0000   0.0000   0.0000
     0.0000   0.0000   0.0000   0.0000   0.0000   0.0000   0.0000   0.0000
     0.0000   0.0000   0.0000   0.0000   0.0000   0.0000   0.0000   0.0000
     0.0000   0.0000   0.0000   0.0000   0.0000   0.0000   0.0000   0.0000
     0.0000   0.0000   0.0000   0.0000   0.0000   0.0000   0.0000   0.0000
     0.0000   0.0000   0.0000   0.0000   0.0000   0.0000   0.0000   0.0000
     0.0000   0.0000   0.0000   0.0000   0.0000   0.0000   0.0000   0.0000
     0.0000   0.0000   0.0000   0.0000

          k = 0.0000 0.1452 0.0737 (  4883 PWs)   bands (ev):

    -8.9488  -8.8782  -6.9291  -6.8206  -3.3303  -3.2452  -0.8265  -0.6763
     1.2616   1.6725   2.2236   2.3900   2.6350   2.6842   3.9456   4.0091
     4.4054   4.7643   5.0925   5.2455   7.4520   7.6639   7.6973   8.0999
     8.1424   8.2897   9.0919   9.0954  10.5024  10.9316  11.1033  11.5546
    12.0460  12.7590  12.9409  13.6250  13.9629  14.1418  14.3204  14.7977
    14.8140  15.2963  15.7031  15.9897  16.0944  17.0513  17.1707  17.9237
    18.1103  18.3069  18.3957  18.4336  18.6403  18.6586  19.0246  19.4663
    19.8116  20.0273  20.4101  20.6072  20.9947  21.2558  21.3909  21.5529
    22.0151  22.5742  23.2142  23.6041  24.0331  24.7069  25.0222  25.5876
    25.7748  25.8931  26.0131  26.1186  26.8127  26.8329  27.5508  27.9129
    27.9359  28.1589  28.4717  28.5446  28.6430  29.0823  29.1779  29.2705
    29.5643  29.7466  29.7929  30.2007  30.5281  30.5716  30.9010  31.2554
    31.9838  32.2836  32.5048  32.7385

     occupation numbers 
     1.0000   1.0000   1.0000   1.0000   1.0000   1.0000   1.0000   1.0000
     1.0000   1.0000   1.0000   1.0000   1.0000   1.0000   1.0000   1.0000
     1.0000   1.0000   1.0000   1.0000   0.0000   0.0000   0.0000   0.0000
     0.0000   0.0000   0.0000   0.0000   0.0000   0.0000   0.0000   0.0000
     0.0000   0.0000   0.0000   0.0000   0.0000   0.0000   0.0000   0.0000
     0.0000   0.0000   0.0000   0.0000   0.0000   0.0000   0.0000   0.0000
     0.0000   0.0000   0.0000   0.0000   0.0000   0.0000   0.0000   0.0000
     0.0000   0.0000   0.0000   0.0000   0.0000   0.0000   0.0000   0.0000
     0.0000   0.0000   0.0000   0.0000   0.0000   0.0000   0.0000   0.0000
     0.0000   0.0000   0.0000   0.0000   0.0000   0.0000   0.0000   0.0000
     0.0000   0.0000   0.0000   0.0000   0.0000   0.0000   0.0000   0.0000
     0.0000   0.0000   0.0000   0.0000   0.0000   0.0000   0.0000   0.0000
     0.0000   0.0000   0.0000   0.0000

          k = 0.0000 0.1452-0.1473 (  4872 PWs)   bands (ev):

    -8.9145  -8.9145  -6.8736  -6.8736  -3.2920  -3.2920  -0.7419  -0.7419
     1.4178   1.4178   2.3526   2.3526   2.6590   2.6590   3.9780   3.9780
     4.7879   4.7879   4.8884   4.8884   7.6160   7.6160   8.0142   8.0142
     8.1476   8.1476   9.0926   9.0926  11.0170  11.0170  11.0225  11.0225
    12.2430  12.2430  13.2473  13.2473  13.9546  13.9547  14.5244  14.5244
    15.1399  15.1399  15.9436  15.9437  16.8340  16.8340  17.7115  17.7115
    18.0876  18.0876  18.2384  18.2384  18.7510  18.7510  19.2955  19.2955
    20.0241  20.0241  20.5235  20.5235  21.0888  21.0888  21.2935  21.2935
    21.7289  21.7289  23.3764  23.3764  24.8509  24.8510  24.9717  24.9717
    26.3270  26.3270  26.6102  26.6102  26.8338  26.8338  27.6051  27.6052
    28.0591  28.0591  28.0700  28.0701  28.6720  28.6720  28.9239  28.9239
    30.1083  30.1083  30.2910  30.2910  30.5296  30.5296  31.2623  31.2623
    31.4222  31.4222  32.9665  32.9665

     occupation numbers 
     1.0000   1.0000   1.0000   1.0000   1.0000   1.0000   1.0000   1.0000
     1.0000   1.0000   1.0000   1.0000   1.0000   1.0000   1.0000   1.0000
     1.0000   1.0000   1.0000   1.0000   0.0000   0.0000   0.0000   0.0000
     0.0000   0.0000   0.0000   0.0000   0.0000   0.0000   0.0000   0.0000
     0.0000   0.0000   0.0000   0.0000   0.0000   0.0000   0.0000   0.0000
     0.0000   0.0000   0.0000   0.0000   0.0000   0.0000   0.0000   0.0000
     0.0000   0.0000   0.0000   0.0000   0.0000   0.0000   0.0000   0.0000
     0.0000   0.0000   0.0000   0.0000   0.0000   0.0000   0.0000   0.0000
     0.0000   0.0000   0.0000   0.0000   0.0000   0.0000   0.0000   0.0000
     0.0000   0.0000   0.0000   0.0000   0.0000   0.0000   0.0000   0.0000
     0.0000   0.0000   0.0000   0.0000   0.0000   0.0000   0.0000   0.0000
     0.0000   0.0000   0.0000   0.0000   0.0000   0.0000   0.0000   0.0000
     0.0000   0.0000   0.0000   0.0000

          k = 0.0000 0.2179 0.0000 (  4863 PWs)   bands (ev):

    -8.7174  -8.6267  -7.2165  -7.1493  -3.3401  -3.0862  -1.6023  -1.2369
     1.3802   2.5785   2.7202   2.8103   2.8697   3.1631   3.5116   3.7856
     3.8371   4.7935   5.3421   5.5832   7.4753   7.7777   7.8251   7.8710
     8.0901   9.0271   9.1051   9.2119   9.6860  10.2813  10.5231  11.4436
    12.4618  12.5979  12.9417  13.3042  13.7373  14.3201  14.6960  14.7892
    15.4317  15.6242  16.3781  16.4077  16.6727  16.8112  16.8995  17.0057
    17.6999  18.1033  18.3211  18.5870  18.7384  18.9179  18.9194  19.1286
    19.4594  19.9548  20.1969  20.2425  20.9945  21.5013  21.7880  22.1447
    22.6033  22.8256  23.0218  23.5880  24.1648  24.5933  24.6110  24.8778
    25.5118  26.2062  26.2169  26.4131  26.4524  26.5181  26.6410  26.7541
    27.1809  27.3100  27.3843  28.2590  28.6522  28.7226  29.4547  29.7844
    30.1293  30.3743  30.4001  30.4883  30.5714  30.7808  30.8760  30.9415
    31.9240  31.9647  32.2667  32.3962

     occupation numbers 
     1.0000   1.0000   1.0000   1.0000   1.0000   1.0000   1.0000   1.0000
     1.0000   1.0000   1.0000   1.0000   1.0000   1.0000   1.0000   1.0000
     1.0000   1.0000   1.0000   1.0000   0.0000   0.0000   0.0000   0.0000
     0.0000   0.0000   0.0000   0.0000   0.0000   0.0000   0.0000   0.0000
     0.0000   0.0000   0.0000   0.0000   0.0000   0.0000   0.0000   0.0000
     0.0000   0.0000   0.0000   0.0000   0.0000   0.0000   0.0000   0.0000
     0.0000   0.0000   0.0000   0.0000   0.0000   0.0000   0.0000   0.0000
     0.0000   0.0000   0.0000   0.0000   0.0000   0.0000   0.0000   0.0000
     0.0000   0.0000   0.0000   0.0000   0.0000   0.0000   0.0000   0.0000
     0.0000   0.0000   0.0000   0.0000   0.0000   0.0000   0.0000   0.0000
     0.0000   0.0000   0.0000   0.0000   0.0000   0.0000   0.0000   0.0000
     0.0000   0.0000   0.0000   0.0000   0.0000   0.0000   0.0000   0.0000
     0.0000   0.0000   0.0000   0.0000

          k = 0.0000 0.2179 0.0737 (  4856 PWs)   bands (ev):

    -8.7049  -8.6409  -7.2055  -7.1580  -3.3086  -3.1298  -1.5494  -1.2902
     1.4975   2.2409   2.8186   2.8607   2.9456   3.1538   3.6817   3.7936
     3.8300   4.5807   5.3447   5.4943   7.6273   7.7750   7.8048   7.8626
     8.2503   9.0372   9.0627   9.0923   9.9623  10.3160  10.4869  11.2451
    12.4597  12.7144  12.8935  13.0186  13.6173  13.7527  14.7966  15.4161
    15.5801  15.6288  16.2750  16.3541  16.5320  16.8070  17.1224  17.6159
    17.7939  17.9346  18.3613  18.4178  18.7576  18.9301  19.0194  19.1383
    19.3622  19.8371  20.3032  20.3805  20.8843  21.1755  21.7134  21.7387
    22.3167  22.7901  23.1444  23.3252  24.1159  24.4810  24.7369  25.4091
    25.6489  26.0832  26.2205  26.3851  26.4014  26.5488  27.1740  27.3304
    27.4687  27.5067  28.0528  28.0568  28.2968  28.4984  29.1716  29.3087
    29.3609  29.7378  30.4189  30.6909  30.7215  30.9068  31.1942  31.2191
    31.6805  32.1357  32.4092  32.7954

     occupation numbers 
     1.0000   1.0000   1.0000   1.0000   1.0000   1.0000   1.0000   1.0000
     1.0000   1.0000   1.0000   1.0000   1.0000   1.0000   1.0000   1.0000
     1.0000   1.0000   1.0000   1.0000   0.0000   0.0000   0.0000   0.0000
     0.0000   0.0000   0.0000   0.0000   0.0000   0.0000   0.0000   0.0000
     0.0000   0.0000   0.0000   0.0000   0.0000   0.0000   0.0000   0.0000
     0.0000   0.0000   0.0000   0.0000   0.0000   0.0000   0.0000   0.0000
     0.0000   0.0000   0.0000   0.0000   0.0000   0.0000   0.0000   0.0000
     0.0000   0.0000   0.0000   0.0000   0.0000   0.0000   0.0000   0.0000
     0.0000   0.0000   0.0000   0.0000   0.0000   0.0000   0.0000   0.0000
     0.0000   0.0000   0.0000   0.0000   0.0000   0.0000   0.0000   0.0000
     0.0000   0.0000   0.0000   0.0000   0.0000   0.0000   0.0000   0.0000
     0.0000   0.0000   0.0000   0.0000   0.0000   0.0000   0.0000   0.0000
     0.0000   0.0000   0.0000   0.0000

          k = 0.0000 0.2179-0.1473 (  4856 PWs)   bands (ev):

    -8.6737  -8.6737  -7.1806  -7.1806  -3.2251  -3.2251  -1.4202  -1.4202
     1.8183   1.8183   2.8390   2.8390   3.0980   3.0980   3.8124   3.8124
     4.1111   4.1111   5.3824   5.3824   7.7801   7.7801   7.8021   7.8021
     8.6698   8.6698   9.0634   9.0634  10.4006  10.4006  10.6206  10.6206
    12.6382  12.6383  12.8480  12.8480  13.4903  13.4903  15.0674  15.0674
    15.8421  15.8421  16.2494  16.2494  16.7295  16.7295  17.6787  17.6787
    18.0703  18.0703  18.2748  18.2748  18.8375  18.8375  18.8469  18.8469
    19.6931  19.6931  20.2371  20.2371  21.0651  21.0651  21.4858  21.4858
    22.2688  22.2688  23.4680  23.4680  23.8687  23.8687  25.4479  25.4479
    25.8524  25.8524  26.2454  26.2454  27.1684  27.1684  27.3437  27.3437
    27.8535  27.8535  27.9321  27.9321  28.2634  28.2634  28.9857  28.9857
    29.3845  29.3845  29.8372  29.8372  31.0289  31.0289  31.3528  31.3528
    32.0357  32.0357  32.9664  32.9664

     occupation numbers 
     1.0000   1.0000   1.0000   1.0000   1.0000   1.0000   1.0000   1.0000
     1.0000   1.0000   1.0000   1.0000   1.0000   1.0000   1.0000   1.0000
     1.0000   1.0000   1.0000   1.0000   0.0000   0.0000   0.0000   0.0000
     0.0000   0.0000   0.0000   0.0000   0.0000   0.0000   0.0000   0.0000
     0.0000   0.0000   0.0000   0.0000   0.0000   0.0000   0.0000   0.0000
     0.0000   0.0000   0.0000   0.0000   0.0000   0.0000   0.0000   0.0000
     0.0000   0.0000   0.0000   0.0000   0.0000   0.0000   0.0000   0.0000
     0.0000   0.0000   0.0000   0.0000   0.0000   0.0000   0.0000   0.0000
     0.0000   0.0000   0.0000   0.0000   0.0000   0.0000   0.0000   0.0000
     0.0000   0.0000   0.0000   0.0000   0.0000   0.0000   0.0000   0.0000
     0.0000   0.0000   0.0000   0.0000   0.0000   0.0000   0.0000   0.0000
     0.0000   0.0000   0.0000   0.0000   0.0000   0.0000   0.0000   0.0000
     0.0000   0.0000   0.0000   0.0000

          k = 0.0000 0.2905 0.0000 (  4874 PWs)   bands (ev):

    -8.3889  -8.3146  -7.5674  -7.5659  -3.1521  -2.8012  -2.2528  -1.8398
     1.7264   2.8028   3.0490   3.0835   3.0925   3.5810   3.5939   3.6151
     4.0533   4.2288   5.3035   5.4050   7.7136   7.7255   7.8486   7.9850
     8.5711   9.1006   9.2318   9.2440   9.7463   9.9718  10.0752  11.2661
    12.3528  12.4107  12.4359  12.6181  13.8462  14.6982  15.1180  15.2081
    15.2203  16.2492  16.3332  16.3770  16.4177  16.4412  17.0253  17.5269
    17.6814  17.8318  18.2708  18.3386  18.3600  18.3892  19.3328  19.3889
    19.9228  20.1636  20.3366  20.9925  21.2958  21.8864  22.0138  22.1052
    22.1719  22.3399  23.0947  23.6878  23.6930  23.7867  25.2648  25.2951
    25.3194  25.4490  25.4725  25.7726  25.9179  25.9292  26.2597  26.3808
    26.5228  27.6582  27.6828  27.8812  28.9494  28.9916  29.1673  29.3606
    29.5211  29.6083  30.0346  30.6719  30.6945  31.0894  31.2151  31.2674
    32.3829  32.5699  32.9749  33.0211

     occupation numbers 
     1.0000   1.0000   1.0000   1.0000   1.0000   1.0000   1.0000   1.0000
     1.0000   1.0000   1.0000   1.0000   1.0000   1.0000   1.0000   1.0000
     1.0000   1.0000   1.0000   1.0000   0.0000   0.0000   0.0000   0.0000
     0.0000   0.0000   0.0000   0.0000   0.0000   0.0000   0.0000   0.0000
     0.0000   0.0000   0.0000   0.0000   0.0000   0.0000   0.0000   0.0000
     0.0000   0.0000   0.0000   0.0000   0.0000   0.0000   0.0000   0.0000
     0.0000   0.0000   0.0000   0.0000   0.0000   0.0000   0.0000   0.0000
     0.0000   0.0000   0.0000   0.0000   0.0000   0.0000   0.0000   0.0000
     0.0000   0.0000   0.0000   0.0000   0.0000   0.0000   0.0000   0.0000
     0.0000   0.0000   0.0000   0.0000   0.0000   0.0000   0.0000   0.0000
     0.0000   0.0000   0.0000   0.0000   0.0000   0.0000   0.0000   0.0000
     0.0000   0.0000   0.0000   0.0000   0.0000   0.0000   0.0000   0.0000
     0.0000   0.0000   0.0000   0.0000

          k = 0.0000 0.2905 0.0737 (  4867 PWs)   bands (ev):

    -8.3786  -8.3260  -7.5668  -7.5656  -3.1067  -2.8595  -2.1965  -1.9050
     1.8800   2.7823   2.9757   3.0551   3.0859   3.5832   3.5923   3.7209
     4.0255   4.0377   5.3321   5.3949   7.7328   7.7588   7.8633   7.9758
     8.7618   9.1203   9.2216   9.5249   9.7784   9.8261   9.9377  10.9674
    12.3531  12.3980  12.5071  12.6738  13.7685  14.1293  15.1947  15.2305
    15.3251  16.0314  16.4694  16.5519  16.7029  16.8806  17.0123  17.5336
    17.7255  18.1756  18.2396  18.2925  18.3375  18.3437  19.3515  19.3800
    19.6013  20.1162  20.1281  20.8091  21.0983  21.6575  22.0521  22.0848
    22.3289  22.6006  23.2112  23.2178  23.7782  23.8502  24.7475  25.2198
    25.3188  25.3916  25.8695  25.9664  26.0277  26.0294  26.1924  26.7178
    26.9208  27.6107  27.7489  28.5740  28.7863  28.8402  28.9148  29.0308
    29.1413  29.4342  30.2076  30.2913  30.5765  31.1412  31.7077  31.7697
    32.3419  32.4823  32.9546  33.1142

     occupation numbers 
     1.0000   1.0000   1.0000   1.0000   1.0000   1.0000   1.0000   1.0000
     1.0000   1.0000   1.0000   1.0000   1.0000   1.0000   1.0000   1.0000
     1.0000   1.0000   1.0000   1.0000   0.0000   0.0000   0.0000   0.0000
     0.0000   0.0000   0.0000   0.0000   0.0000   0.0000   0.0000   0.0000
     0.0000   0.0000   0.0000   0.0000   0.0000   0.0000   0.0000   0.0000
     0.0000   0.0000   0.0000   0.0000   0.0000   0.0000   0.0000   0.0000
     0.0000   0.0000   0.0000   0.0000   0.0000   0.0000   0.0000   0.0000
     0.0000   0.0000   0.0000   0.0000   0.0000   0.0000   0.0000   0.0000
     0.0000   0.0000   0.0000   0.0000   0.0000   0.0000   0.0000   0.0000
     0.0000   0.0000   0.0000   0.0000   0.0000   0.0000   0.0000   0.0000
     0.0000   0.0000   0.0000   0.0000   0.0000   0.0000   0.0000   0.0000
     0.0000   0.0000   0.0000   0.0000   0.0000   0.0000   0.0000   0.0000
     0.0000   0.0000   0.0000   0.0000

          k = 0.0000 0.2905-0.1473 (  4850 PWs)   bands (ev):

    -8.3529  -8.3528  -7.5657  -7.5657  -2.9895  -2.9895  -2.0552  -2.0552
     2.2832   2.2832   3.0703   3.0703   3.4060   3.4060   3.5879   3.5879
     3.9836   3.9836   5.3691   5.3692   7.7533   7.7533   7.9358   7.9358
     9.1695   9.1695   9.2724   9.2724   9.8571   9.8571  10.2323  10.2323
    12.4006  12.4006  12.6382  12.6382  13.7444  13.7444  15.1595  15.1595
    15.6390  15.6390  16.7723  16.7724  16.8131  16.8132  17.4861  17.4861
    17.9249  17.9249  18.2987  18.2987  18.6852  18.6852  19.3399  19.3399
    19.3667  19.3667  20.1620  20.1620  21.3904  21.3904  22.1576  22.1576
    22.5950  22.5950  23.2151  23.2151  23.7213  23.7213  24.7232  24.7232
    25.2875  25.2875  26.0207  26.0207  26.0484  26.0484  27.1908  27.1908
    27.2942  27.2942  28.0265  28.0265  28.6425  28.6425  28.8338  28.8338
    29.3159  29.3159  30.2752  30.2753  30.7810  30.7811  31.9327  31.9327
    32.2134  32.2134  32.7924  32.7924

     occupation numbers 
     1.0000   1.0000   1.0000   1.0000   1.0000   1.0000   1.0000   1.0000
     1.0000   1.0000   1.0000   1.0000   1.0000   1.0000   1.0000   1.0000
     1.0000   1.0000   1.0000   1.0000   0.0000   0.0000   0.0000   0.0000
     0.0000   0.0000   0.0000   0.0000   0.0000   0.0000   0.0000   0.0000
     0.0000   0.0000   0.0000   0.0000   0.0000   0.0000   0.0000   0.0000
     0.0000   0.0000   0.0000   0.0000   0.0000   0.0000   0.0000   0.0000
     0.0000   0.0000   0.0000   0.0000   0.0000   0.0000   0.0000   0.0000
     0.0000   0.0000   0.0000   0.0000   0.0000   0.0000   0.0000   0.0000
     0.0000   0.0000   0.0000   0.0000   0.0000   0.0000   0.0000   0.0000
     0.0000   0.0000   0.0000   0.0000   0.0000   0.0000   0.0000   0.0000
     0.0000   0.0000   0.0000   0.0000   0.0000   0.0000   0.0000   0.0000
     0.0000   0.0000   0.0000   0.0000   0.0000   0.0000   0.0000   0.0000
     0.0000   0.0000   0.0000   0.0000

          k = 0.0000-0.3631 0.0000 (  4910 PWs)   bands (ev):

    -7.9957  -7.9957  -7.9489  -7.9489  -2.7803  -2.7803  -2.3765  -2.3765
     2.2094   2.2094   3.3200   3.3200   3.3397   3.3397   3.6016   3.6016
     4.5780   4.5780   4.8629   4.8629   7.8907   7.8907   7.9132   7.9133
     8.9228   8.9228   9.3430   9.3430   9.5358   9.5358  10.8490  10.8490
    12.2262  12.2262  12.2384  12.2384  14.4845  14.4845  15.0583  15.0583
    15.7957  15.7957  16.3543  16.3543  16.8101  16.8101  16.8103  16.8103
    17.2825  17.2825  18.8695  18.8695  19.2243  19.2243  19.2368  19.2368
    19.2458  19.2458  21.2428  21.2428  21.7401  21.7401  22.1256  22.1256
    22.2106  22.2106  23.1146  23.1146  23.6985  23.6985  25.0719  25.0719
    25.1513  25.1513  25.2002  25.2002  25.5916  25.5916  26.5431  26.5431
    26.8769  26.8769  28.4348  28.4348  28.9653  28.9653  29.2056  29.2056
    29.4910  29.4910  29.7636  29.7636  30.4858  30.4858  31.4752  31.4752
    33.0283  33.0283  33.6691  33.6692

     occupation numbers 
     1.0000   1.0000   1.0000   1.0000   1.0000   1.0000   1.0000   1.0000
     1.0000   1.0000   1.0000   1.0000   1.0000   1.0000   1.0000   1.0000
     1.0000   1.0000   1.0000   1.0000   0.0000   0.0000   0.0000   0.0000
     0.0000   0.0000   0.0000   0.0000   0.0000   0.0000   0.0000   0.0000
     0.0000   0.0000   0.0000   0.0000   0.0000   0.0000   0.0000   0.0000
     0.0000   0.0000   0.0000   0.0000   0.0000   0.0000   0.0000   0.0000
     0.0000   0.0000   0.0000   0.0000   0.0000   0.0000   0.0000   0.0000
     0.0000   0.0000   0.0000   0.0000   0.0000   0.0000   0.0000   0.0000
     0.0000   0.0000   0.0000   0.0000   0.0000   0.0000   0.0000   0.0000
     0.0000   0.0000   0.0000   0.0000   0.0000   0.0000   0.0000   0.0000
     0.0000   0.0000   0.0000   0.0000   0.0000   0.0000   0.0000   0.0000
     0.0000   0.0000   0.0000   0.0000   0.0000   0.0000   0.0000   0.0000
     0.0000   0.0000   0.0000   0.0000

          k = 0.0000-0.3631 0.0737 (  4874 PWs)   bands (ev):

    -7.9889  -7.9889  -7.9559  -7.9559  -2.7267  -2.7267  -2.4422  -2.4422
     2.3793   2.3793   3.3230   3.3230   3.3311   3.3311   3.3368   3.3368
     4.6712   4.6712   4.8456   4.8456   7.9089   7.9089   7.9172   7.9172
     9.1684   9.1684   9.3700   9.3700   9.5063   9.5063  10.5054  10.5054
    12.2729  12.2729  12.3175  12.3175  14.4360  14.4360  14.7117  14.7117
    15.9187  15.9187  16.6236  16.6236  16.8152  16.8152  16.9239  16.9239
    17.5427  17.5427  18.9314  18.9314  18.9615  18.9615  19.1975  19.1975
    19.2671  19.2671  20.6306  20.6306  21.8279  21.8279  22.3908  22.3908
    22.4175  22.4175  23.0882  23.0882  23.4178  23.4178  24.9702  24.9702
    25.1181  25.1181  25.2050  25.2050  26.2413  26.2413  26.4723  26.4723
    26.8535  26.8535  27.8846  27.8846  29.0479  29.0479  29.2931  29.2931
    29.5652  29.5652  30.2753  30.2753  30.4980  30.4980  31.0666  31.0666
    33.0468  33.0468  33.2955  33.2955

     occupation numbers 
     1.0000   1.0000   1.0000   1.0000   1.0000   1.0000   1.0000   1.0000
     1.0000   1.0000   1.0000   1.0000   1.0000   1.0000   1.0000   1.0000
     1.0000   1.0000   1.0000   1.0000   0.0000   0.0000   0.0000   0.0000
     0.0000   0.0000   0.0000   0.0000   0.0000   0.0000   0.0000   0.0000
     0.0000   0.0000   0.0000   0.0000   0.0000   0.0000   0.0000   0.0000
     0.0000   0.0000   0.0000   0.0000   0.0000   0.0000   0.0000   0.0000
     0.0000   0.0000   0.0000   0.0000   0.0000   0.0000   0.0000   0.0000
     0.0000   0.0000   0.0000   0.0000   0.0000   0.0000   0.0000   0.0000
     0.0000   0.0000   0.0000   0.0000   0.0000   0.0000   0.0000   0.0000
     0.0000   0.0000   0.0000   0.0000   0.0000   0.0000   0.0000   0.0000
     0.0000   0.0000   0.0000   0.0000   0.0000   0.0000   0.0000   0.0000
     0.0000   0.0000   0.0000   0.0000   0.0000   0.0000   0.0000   0.0000
     0.0000   0.0000   0.0000   0.0000

          k = 0.0000-0.3631-0.1473 (  4860 PWs)   bands (ev):

    -7.9725  -7.9725  -7.9725  -7.9725  -2.5904  -2.5904  -2.5904  -2.5904
     2.8157   2.8157   2.8157   2.8157   3.3299   3.3299   3.3299   3.3299
     4.7857   4.7857   4.7857   4.7858   7.9214   7.9214   7.9214   7.9215
     9.4369   9.4370   9.4370   9.4370   9.7993   9.7993   9.7993   9.7993
    12.3486  12.3486  12.3486  12.3486  14.4332  14.4332  14.4332  14.4332
    16.2422  16.2422  16.2422  16.2422  17.0644  17.0644  17.0644  17.0644
    18.2727  18.2727  18.2727  18.2727  19.1087  19.1087  19.1087  19.1087
    19.6973  19.6973  19.6973  19.6974  22.0589  22.0589  22.0589  22.0589
    22.8627  22.8627  22.8627  22.8627  24.1217  24.1217  24.1217  24.1217
    25.2027  25.2027  25.2027  25.2027  26.3998  26.3998  26.3998  26.3999
    27.5552  27.5552  27.5553  27.5553  28.9752  28.9752  28.9752  28.9752
    29.8576  29.8576  29.8576  29.8576  31.1263  31.1263  31.1263  31.1263
    32.7904  32.7905  32.7905  32.7905

     occupation numbers 
     1.0000   1.0000   1.0000   1.0000   1.0000   1.0000   1.0000   1.0000
     1.0000   1.0000   1.0000   1.0000   1.0000   1.0000   1.0000   1.0000
     1.0000   1.0000   1.0000   1.0000   0.0000   0.0000   0.0000   0.0000
     0.0000   0.0000   0.0000   0.0000   0.0000   0.0000   0.0000   0.0000
     0.0000   0.0000   0.0000   0.0000   0.0000   0.0000   0.0000   0.0000
     0.0000   0.0000   0.0000   0.0000   0.0000   0.0000   0.0000   0.0000
     0.0000   0.0000   0.0000   0.0000   0.0000   0.0000   0.0000   0.0000
     0.0000   0.0000   0.0000   0.0000   0.0000   0.0000   0.0000   0.0000
     0.0000   0.0000   0.0000   0.0000   0.0000   0.0000   0.0000   0.0000
     0.0000   0.0000   0.0000   0.0000   0.0000   0.0000   0.0000   0.0000
     0.0000   0.0000   0.0000   0.0000   0.0000   0.0000   0.0000   0.0000
     0.0000   0.0000   0.0000   0.0000   0.0000   0.0000   0.0000   0.0000
     0.0000   0.0000   0.0000   0.0000

          k = 0.0714 0.0000 0.0000 (  4885 PWs)   bands (ev):

    -9.1037  -8.9975  -6.6900  -6.4312  -3.2606  -3.2001  -0.0900   0.5191
     0.9534   1.0910   1.3331   1.6655   2.1151   2.1860   3.7057   3.7632
     3.7811   4.7964   5.3816   6.3398   6.5416   7.1423   7.8809   8.0624
     8.8062   8.9357   8.9421   9.0841  11.3805  11.3926  11.8781  11.9181
    11.9865  12.3139  13.0140  13.1532  13.2018  13.3116  13.7186  14.3541
    14.8500  15.0770  15.5302  15.6140  16.0394  17.1765  17.1975  17.2709
    17.4439  18.2406  18.4421  18.8489  19.0517  19.2749  19.2837  19.7251
    20.5760  21.2111  21.3826  21.5577  21.9413  22.0360  22.0756  22.2658
    22.5483  22.8690  23.1466  23.3543  23.6044  23.7848  24.4170  24.6577
    25.2419  25.4211  25.4736  25.8207  26.3439  26.3443  27.2289  27.2404
    27.4921  27.7053  28.4159  28.7970  28.9668  29.2492  29.4048  29.7685
    29.7698  31.0982  31.3932  31.7462  31.9182  32.1510  32.2833  32.3580
    32.6135  32.6385  32.9706  33.1153

     occupation numbers 
     1.0000   1.0000   1.0000   1.0000   1.0000   1.0000   1.0000   1.0000
     1.0000   1.0000   1.0000   1.0000   1.0000   1.0000   1.0000   1.0000
     1.0000   1.0000   1.0000   1.0000   0.0000   0.0000   0.0000   0.0000
     0.0000   0.0000   0.0000   0.0000   0.0000   0.0000   0.0000   0.0000
     0.0000   0.0000   0.0000   0.0000   0.0000   0.0000   0.0000   0.0000
     0.0000   0.0000   0.0000   0.0000   0.0000   0.0000   0.0000   0.0000
     0.0000   0.0000   0.0000   0.0000   0.0000   0.0000   0.0000   0.0000
     0.0000   0.0000   0.0000   0.0000   0.0000   0.0000   0.0000   0.0000
     0.0000   0.0000   0.0000   0.0000   0.0000   0.0000   0.0000   0.0000
     0.0000   0.0000   0.0000   0.0000   0.0000   0.0000   0.0000   0.0000
     0.0000   0.0000   0.0000   0.0000   0.0000   0.0000   0.0000   0.0000
     0.0000   0.0000   0.0000   0.0000   0.0000   0.0000   0.0000   0.0000
     0.0000   0.0000   0.0000   0.0000

          k = 0.0714 0.0000 0.0737 (  4884 PWs)   bands (ev):

    -9.0892  -9.0142  -6.6518  -6.4690  -3.2520  -3.2093  -0.0272   0.3736
     1.0041   1.2428   1.2714   1.6228   2.1264   2.1776   3.7112   3.7664
     3.8339   4.5178   5.5208   6.1936   6.8148   7.1769   7.9037   8.0312
     8.8308   8.9283   8.9629   9.0670  11.2343  11.4169  11.7338  11.9975
    12.0121  12.3094  12.8097  13.0581  13.2045  13.2104  13.9781  14.0334
    15.1231  15.3658  15.6064  15.8110  16.0206  17.2648  17.2868  17.3104
    17.5496  17.8971  18.4268  18.4470  19.2642  19.4594  19.4990  19.8100
    20.3573  20.7142  21.0485  21.1039  21.6885  21.7981  22.1621  22.5386
    22.8995  22.9372  22.9474  23.5408  24.0580  24.3472  24.7664  24.9901
    25.0855  25.2628  25.6570  25.6726  26.0077  26.1940  26.8168  27.1849
    27.2242  27.8711  28.4635  28.5306  29.5008  29.6833  29.7396  29.7483
    29.8549  31.2590  31.3262  31.6246  31.7253  31.9183  32.0552  32.0573
    32.2236  32.6711  32.6803  33.0502

     occupation numbers 
     1.0000   1.0000   1.0000   1.0000   1.0000   1.0000   1.0000   1.0000
     1.0000   1.0000   1.0000   1.0000   1.0000   1.0000   1.0000   1.0000
     1.0000   1.0000   1.0000   1.0000   0.0000   0.0000   0.0000   0.0000
     0.0000   0.0000   0.0000   0.0000   0.0000   0.0000   0.0000   0.0000
     0.0000   0.0000   0.0000   0.0000   0.0000   0.0000   0.0000   0.0000
     0.0000   0.0000   0.0000   0.0000   0.0000   0.0000   0.0000   0.0000
     0.0000   0.0000   0.0000   0.0000   0.0000   0.0000   0.0000   0.0000
     0.0000   0.0000   0.0000   0.0000   0.0000   0.0000   0.0000   0.0000
     0.0000   0.0000   0.0000   0.0000   0.0000   0.0000   0.0000   0.0000
     0.0000   0.0000   0.0000   0.0000   0.0000   0.0000   0.0000   0.0000
     0.0000   0.0000   0.0000   0.0000   0.0000   0.0000   0.0000   0.0000
     0.0000   0.0000   0.0000   0.0000   0.0000   0.0000   0.0000   0.0000
     0.0000   0.0000   0.0000   0.0000

          k = 0.0714 0.0000-0.1473 (  4898 PWs)   bands (ev):

    -9.0527  -9.0527  -6.5603  -6.5603  -3.2310  -3.2309   0.1438   0.1438
     1.1324   1.1324   1.4750   1.4750   2.1532   2.1532   3.7343   3.7344
     4.0903   4.0903   5.8536   5.8536   7.1348   7.1349   7.9632   7.9632
     8.8868   8.8868   9.0197   9.0197  11.3184  11.3184  11.6780  11.6780
    12.0517  12.0517  13.2094  13.2095  13.4490  13.4490  13.5059  13.5060
    15.2318  15.2318  15.9561  15.9561  16.9276  16.9276  17.4253  17.4253
    17.4571  17.4571  18.3765  18.3765  19.3802  19.3802  19.9635  19.9635
    19.9860  19.9860  20.7856  20.7856  21.9355  21.9355  22.0645  22.0645
    23.0242  23.0242  23.8607  23.8607  23.9061  23.9061  25.0217  25.0217
    25.5236  25.5236  25.6536  25.6536  26.2602  26.2602  26.4295  26.4295
    27.2168  27.2168  28.9595  28.9595  29.5821  29.5821  30.2061  30.2061
    30.3368  30.3368  31.0728  31.0728  31.4769  31.4769  32.1275  32.1276
    32.5045  32.5045  32.7868  32.7868

     occupation numbers 
     1.0000   1.0000   1.0000   1.0000   1.0000   1.0000   1.0000   1.0000
     1.0000   1.0000   1.0000   1.0000   1.0000   1.0000   1.0000   1.0000
     1.0000   1.0000   1.0000   1.0000   0.0000   0.0000   0.0000   0.0000
     0.0000   0.0000   0.0000   0.0000   0.0000   0.0000   0.0000   0.0000
     0.0000   0.0000   0.0000   0.0000   0.0000   0.0000   0.0000   0.0000
     0.0000   0.0000   0.0000   0.0000   0.0000   0.0000   0.0000   0.0000
     0.0000   0.0000   0.0000   0.0000   0.0000   0.0000   0.0000   0.0000
     0.0000   0.0000   0.0000   0.0000   0.0000   0.0000   0.0000   0.0000
     0.0000   0.0000   0.0000   0.0000   0.0000   0.0000   0.0000   0.0000
     0.0000   0.0000   0.0000   0.0000   0.0000   0.0000   0.0000   0.0000
     0.0000   0.0000   0.0000   0.0000   0.0000   0.0000   0.0000   0.0000
     0.0000   0.0000   0.0000   0.0000   0.0000   0.0000   0.0000   0.0000
     0.0000   0.0000   0.0000   0.0000

          k = 0.0714 0.0726 0.0000 (  4883 PWs)   bands (ev):

    -9.0529  -8.9483  -6.7383  -6.5097  -3.2633  -3.2574  -0.2204  -0.0679
     1.2479   1.2720   1.4686   1.7844   2.2035   2.3129   3.5982   3.7301
     4.1236   4.9425   4.9962   5.9325   6.8960   7.5425   7.9332   8.1123
     8.7099   8.7606   8.9859   9.0569  11.0743  11.1818  11.3028  11.7207
    11.9370  12.9141  13.2104  13.4126  13.4570  13.4811  13.7848  14.3292
    14.6724  15.0231  15.4594  16.0212  16.1217  16.8027  17.0781  17.2925
    17.8910  18.1022  18.6396  18.8107  18.9311  19.3888  19.4945  19.6254
    20.3806  20.6769  20.9903  21.1309  21.4191  21.7507  22.0928  22.3927
    22.7332  22.8000  23.2693  23.4592  23.8740  24.0240  24.3634  24.5186
    24.6235  25.8826  25.9056  26.1091  26.4550  27.2201  27.5064  27.5395
    27.6525  27.8400  28.1893  28.4374  28.6903  29.0709  29.4360  29.4744
    30.1180  30.3163  30.8295  30.9588  31.0542  31.2105  31.8912  32.3917
    32.5825  33.0227  33.0258  33.0706

     occupation numbers 
     1.0000   1.0000   1.0000   1.0000   1.0000   1.0000   1.0000   1.0000
     1.0000   1.0000   1.0000   1.0000   1.0000   1.0000   1.0000   1.0000
     1.0000   1.0000   1.0000   1.0000   0.0000   0.0000   0.0000   0.0000
     0.0000   0.0000   0.0000   0.0000   0.0000   0.0000   0.0000   0.0000
     0.0000   0.0000   0.0000   0.0000   0.0000   0.0000   0.0000   0.0000
     0.0000   0.0000   0.0000   0.0000   0.0000   0.0000   0.0000   0.0000
     0.0000   0.0000   0.0000   0.0000   0.0000   0.0000   0.0000   0.0000
     0.0000   0.0000   0.0000   0.0000   0.0000   0.0000   0.0000   0.0000
     0.0000   0.0000   0.0000   0.0000   0.0000   0.0000   0.0000   0.0000
     0.0000   0.0000   0.0000   0.0000   0.0000   0.0000   0.0000   0.0000
     0.0000   0.0000   0.0000   0.0000   0.0000   0.0000   0.0000   0.0000
     0.0000   0.0000   0.0000   0.0000   0.0000   0.0000   0.0000   0.0000
     0.0000   0.0000   0.0000   0.0000

          k = 0.0714 0.0726 0.0737 (  4881 PWs)   bands (ev):

    -9.0386  -8.9647  -6.7041  -6.5426  -3.2641  -3.2598  -0.1850  -0.0749
     1.1859   1.2047   1.5870   1.7752   2.2252   2.3050   3.6179   3.7129
     4.1592   4.6908   5.1451   5.8330   7.1199   7.5516   7.9519   8.0762
     8.7286   8.7664   8.9988   9.0477  11.1118  11.1348  11.3094  11.8566
    11.8734  12.4655  13.0741  13.1719  13.5087  13.6067  13.8462  14.1530
[...]
    12.4891  12.5444  12.8398  12.8725  13.3582  13.8075  14.2453  14.7166
    15.6433  15.6972  15.8484  16.3308  16.3687  16.9756  17.0167  17.3910
    17.5515  18.1013  18.1498  18.6033  18.9270  19.3778  19.7991  20.5521
    20.7842  20.8830  21.1148  21.3143  22.4111  22.5035  23.5737  23.5835
    23.8993  24.0052  24.1366  24.3834  24.4503  24.8671  25.0428  25.1643
    25.5085  25.5942  25.7652  25.8605  26.3432  26.6864  26.9384  27.4832
    27.7204  28.0905  28.6636  28.7014  29.0094  29.0431  29.5344  29.8064
    29.9617  30.1986  30.2889  30.9043  31.0696  31.3628  31.5212  32.2844
    32.7030  32.7651  33.0848  33.6481

     occupation numbers 
     1.0000   1.0000   1.0000   1.0000   1.0000   1.0000   1.0000   1.0000
     1.0000   1.0000   1.0000   1.0000   1.0000   1.0000   1.0000   1.0000
     1.0000   1.0000   1.0000   1.0000   0.0000   0.0000   0.0000   0.0000
     0.0000   0.0000   0.0000   0.0000   0.0000   0.0000   0.0000   0.0000
     0.0000   0.0000   0.0000   0.0000   0.0000   0.0000   0.0000   0.0000
     0.0000   0.0000   0.0000   0.0000   0.0000   0.0000   0.0000   0.0000
     0.0000   0.0000   0.0000   0.0000   0.0000   0.0000   0.0000   0.0000
     0.0000   0.0000   0.0000   0.0000   0.0000   0.0000   0.0000   0.0000
     0.0000   0.0000   0.0000   0.0000   0.0000   0.0000   0.0000   0.0000
     0.0000   0.0000   0.0000   0.0000   0.0000   0.0000   0.0000   0.0000
     0.0000   0.0000   0.0000   0.0000   0.0000   0.0000   0.0000   0.0000
     0.0000   0.0000   0.0000   0.0000   0.0000   0.0000   0.0000   0.0000
     0.0000   0.0000   0.0000   0.0000

          k =-0.4286 0.0726-0.0737 (  4873 PWs)   bands (ev):

    -6.9989  -6.9349  -5.5758  -5.5272  -4.4468  -4.2832  -2.8224  -2.6780
     0.5961   0.6485   1.0623   1.2100   2.7711   2.8402   2.8851   2.9525
     3.7253   4.1122   4.2934   4.5124   7.0516   7.1103   7.2615   7.4142
     7.8058   7.9321   8.7162   8.7199   9.3387   9.3770  10.1214  10.1614
    12.3225  12.7021  13.0457  13.2213  14.5900  15.1792  15.3024  15.8056
    16.2078  16.6983  16.9453  17.0280  17.3404  18.0992  18.1230  18.4826
    18.8972  19.0366  19.2723  19.7036  20.2126  20.4599  20.6836  20.9813
    21.4584  21.5177  21.9249  22.3020  22.3276  22.3490  23.0852  23.1511
    23.2798  23.4669  23.8156  24.1428  24.2431  24.7981  25.2457  25.4480
    25.6499  26.1763  26.1805  26.8160  27.0686  27.5387  27.6216  27.8019
    28.1508  28.2540  28.2791  28.3585  28.7283  28.8630  29.6138  29.6779
    29.9205  29.9900  30.1175  30.7194  30.8769  31.2273  31.3190  31.3690
    32.0567  32.1670  32.2795  32.7441

     occupation numbers 
     1.0000   1.0000   1.0000   1.0000   1.0000   1.0000   1.0000   1.0000
     1.0000   1.0000   1.0000   1.0000   1.0000   1.0000   1.0000   1.0000
     1.0000   1.0000   1.0000   1.0000   0.0000   0.0000   0.0000   0.0000
     0.0000   0.0000   0.0000   0.0000   0.0000   0.0000   0.0000   0.0000
     0.0000   0.0000   0.0000   0.0000   0.0000   0.0000   0.0000   0.0000
     0.0000   0.0000   0.0000   0.0000   0.0000   0.0000   0.0000   0.0000
     0.0000   0.0000   0.0000   0.0000   0.0000   0.0000   0.0000   0.0000
     0.0000   0.0000   0.0000   0.0000   0.0000   0.0000   0.0000   0.0000
     0.0000   0.0000   0.0000   0.0000   0.0000   0.0000   0.0000   0.0000
     0.0000   0.0000   0.0000   0.0000   0.0000   0.0000   0.0000   0.0000
     0.0000   0.0000   0.0000   0.0000   0.0000   0.0000   0.0000   0.0000
     0.0000   0.0000   0.0000   0.0000   0.0000   0.0000   0.0000   0.0000
     0.0000   0.0000   0.0000   0.0000

          k =-0.4286 0.1452-0.0737 (  4870 PWs)   bands (ev):

    -6.8774  -6.8176  -5.6192  -5.5796  -4.3658  -4.2271  -2.9282  -2.8232
     0.3364   0.4584   1.0203   1.1460   2.1768   2.3226   2.7445   2.7921
     3.7966   4.3133   4.5876   4.7424   6.9886   7.2478   7.6757   7.9237
     8.4376   8.5870   8.8032   8.8448   9.7740  10.0789  10.2004  10.2679
    11.9093  12.7355  12.8509  13.3700  14.2515  15.2990  15.5183  15.7127
    16.0934  16.4757  16.9558  17.1015  17.4010  17.6133  17.7833  18.5950
    18.6322  18.9389  19.0635  19.2490  19.3013  20.1350  20.4037  20.5346
    20.9076  21.5132  21.8511  22.0115  22.1786  22.1934  22.4516  22.9511
    23.2262  23.5400  23.6437  23.7821  24.6265  25.0721  25.2573  25.3235
    25.4366  26.1019  26.4819  26.8392  26.9153  27.2806  27.7111  27.9092
    28.0457  28.3778  28.6798  28.8604  29.2618  29.5265  29.7111  29.9071
    30.0375  30.2531  30.4287  30.8577  31.0460  31.1030  31.4050  31.8979
    32.0301  32.1121  32.6423  32.8496

     occupation numbers 
     1.0000   1.0000   1.0000   1.0000   1.0000   1.0000   1.0000   1.0000
     1.0000   1.0000   1.0000   1.0000   1.0000   1.0000   1.0000   1.0000
     1.0000   1.0000   1.0000   1.0000   0.0000   0.0000   0.0000   0.0000
     0.0000   0.0000   0.0000   0.0000   0.0000   0.0000   0.0000   0.0000
     0.0000   0.0000   0.0000   0.0000   0.0000   0.0000   0.0000   0.0000
     0.0000   0.0000   0.0000   0.0000   0.0000   0.0000   0.0000   0.0000
     0.0000   0.0000   0.0000   0.0000   0.0000   0.0000   0.0000   0.0000
     0.0000   0.0000   0.0000   0.0000   0.0000   0.0000   0.0000   0.0000
     0.0000   0.0000   0.0000   0.0000   0.0000   0.0000   0.0000   0.0000
     0.0000   0.0000   0.0000   0.0000   0.0000   0.0000   0.0000   0.0000
     0.0000   0.0000   0.0000   0.0000   0.0000   0.0000   0.0000   0.0000
     0.0000   0.0000   0.0000   0.0000   0.0000   0.0000   0.0000   0.0000
     0.0000   0.0000   0.0000   0.0000

          k =-0.4286 0.2179-0.0737 (  4862 PWs)   bands (ev):

    -6.6853  -6.6332  -5.7263  -5.7039  -4.2109  -4.1035  -3.1124  -3.0596
     0.1649   0.3548   0.9941   1.0189   1.7200   1.7825   2.3738   2.5546
     3.8949   4.4942   4.7621   4.7897   7.3290   7.7715   8.3471   8.5517
     8.6322   8.7701   9.0836   9.4202   9.9470  10.3701  11.1044  11.2497
    11.7277  12.4989  12.9518  13.1243  13.6936  14.6033  14.9344  15.7890
    16.1054  16.3138  16.8733  17.0424  17.0860  17.2244  18.0560  18.3921
    18.4799  18.5472  18.7677  18.8766  18.9350  19.6799  19.7495  19.9212
    20.6833  20.8893  21.2086  21.9666  22.3448  22.7834  22.9160  23.1092
    23.2907  23.3918  23.6548  23.8489  24.0252  24.4808  25.0740  25.2723
    25.6405  25.8972  26.3681  26.6176  26.9016  27.2594  27.4085  27.5414
    28.2457  28.5063  29.0816  29.1777  29.4164  29.5373  29.8561  30.2549
    30.4361  30.4519  30.7102  30.9293  30.9804  31.4127  31.8442  32.0420
    32.4439  32.4901  32.5496  32.7311

     occupation numbers 
     1.0000   1.0000   1.0000   1.0000   1.0000   1.0000   1.0000   1.0000
     1.0000   1.0000   1.0000   1.0000   1.0000   1.0000   1.0000   1.0000
     1.0000   1.0000   1.0000   1.0000   0.0000   0.0000   0.0000   0.0000
     0.0000   0.0000   0.0000   0.0000   0.0000   0.0000   0.0000   0.0000
     0.0000   0.0000   0.0000   0.0000   0.0000   0.0000   0.0000   0.0000
     0.0000   0.0000   0.0000   0.0000   0.0000   0.0000   0.0000   0.0000
     0.0000   0.0000   0.0000   0.0000   0.0000   0.0000   0.0000   0.0000
     0.0000   0.0000   0.0000   0.0000   0.0000   0.0000   0.0000   0.0000
     0.0000   0.0000   0.0000   0.0000   0.0000   0.0000   0.0000   0.0000
     0.0000   0.0000   0.0000   0.0000   0.0000   0.0000   0.0000   0.0000
     0.0000   0.0000   0.0000   0.0000   0.0000   0.0000   0.0000   0.0000
     0.0000   0.0000   0.0000   0.0000   0.0000   0.0000   0.0000   0.0000
     0.0000   0.0000   0.0000   0.0000

          k =-0.4286 0.2905-0.0737 (  4864 PWs)   bands (ev):

    -6.4399  -6.3999  -5.9092  -5.9087  -3.9768  -3.9018  -3.3625  -3.3603
     0.1721   0.4140   0.7034   0.9064   1.4820   1.6603   1.9607   2.2120
     4.0838   4.6136   4.6441   4.8021   7.8253   8.3703   8.4925   8.7822
     8.8369   9.0680   9.6825   9.7665  10.6523  11.0819  11.5013  11.7871
    12.1400  12.3436  12.7516  12.9074  13.4352  13.9819  14.1737  14.8441
    15.9067  16.0896  16.4087  16.8554  16.9898  17.3719  17.5299  17.8946
    18.3660  18.3994  18.6395  18.7893  18.9267  19.2016  20.1077  20.1951
    20.4572  20.9472  21.2442  21.4524  22.0810  22.7752  22.9927  23.1593
    23.1701  23.2894  23.8086  23.8575  23.9811  24.6183  24.8217  25.1937
    25.3499  25.9608  26.4589  26.5473  26.6998  26.7700  26.9994  27.5679
    28.2143  28.3202  29.0093  29.4618  29.6129  29.7324  29.9013  30.2224
    30.4104  30.5937  30.7348  30.8294  31.1802  31.6642  32.1456  32.2370
    32.3290  32.5925  32.7171  33.2660

     occupation numbers 
     1.0000   1.0000   1.0000   1.0000   1.0000   1.0000   1.0000   1.0000
     1.0000   1.0000   1.0000   1.0000   1.0000   1.0000   1.0000   1.0000
     1.0000   1.0000   1.0000   1.0000   0.0000   0.0000   0.0000   0.0000
     0.0000   0.0000   0.0000   0.0000   0.0000   0.0000   0.0000   0.0000
     0.0000   0.0000   0.0000   0.0000   0.0000   0.0000   0.0000   0.0000
     0.0000   0.0000   0.0000   0.0000   0.0000   0.0000   0.0000   0.0000
     0.0000   0.0000   0.0000   0.0000   0.0000   0.0000   0.0000   0.0000
     0.0000   0.0000   0.0000   0.0000   0.0000   0.0000   0.0000   0.0000
     0.0000   0.0000   0.0000   0.0000   0.0000   0.0000   0.0000   0.0000
     0.0000   0.0000   0.0000   0.0000   0.0000   0.0000   0.0000   0.0000
     0.0000   0.0000   0.0000   0.0000   0.0000   0.0000   0.0000   0.0000
     0.0000   0.0000   0.0000   0.0000   0.0000   0.0000   0.0000   0.0000
     0.0000   0.0000   0.0000   0.0000

          k = 0.5000 0.0726-0.0737 (  4870 PWs)   bands (ev):

    -6.3003  -6.3003  -6.2423  -6.2423  -3.6979  -3.6979  -3.5423  -3.5423
     0.9072   0.9073   0.9894   0.9894   2.8790   2.8790   2.8874   2.8874
     3.9395   3.9395   4.2988   4.2988   6.9054   6.9054   7.1573   7.1573
     8.3104   8.3104   8.3703   8.3703   9.4973   9.4973   9.6859   9.6859
    12.6361  12.6361  12.8835  12.8835  15.1214  15.1214  15.4724  15.4724
    16.4808  16.4808  17.4902  17.4902  17.9200  17.9200  18.7960  18.7961
    19.2294  19.2294  20.1098  20.1098  20.4095  20.4095  20.6900  20.6900
    21.2497  21.2498  21.4366  21.4366  22.1290  22.1290  22.7325  22.7326
    23.1881  23.1881  23.8370  23.8370  24.5609  24.5610  25.5106  25.5107
    26.0027  26.0028  26.1900  26.1900  27.5562  27.5562  27.7485  27.7486
    28.2163  28.2163  28.6413  28.6413  29.3111  29.3111  29.4731  29.4731
    30.4189  30.4189  30.6541  30.6541  31.0228  31.0229  31.6119  31.6119
    32.1183  32.1184  32.7798  32.7798

     occupation numbers 
     1.0000   1.0000   1.0000   1.0000   1.0000   1.0000   1.0000   1.0000
     1.0000   1.0000   1.0000   1.0000   1.0000   1.0000   1.0000   1.0000
     1.0000   1.0000   1.0000   1.0000   0.0000   0.0000   0.0000   0.0000
     0.0000   0.0000   0.0000   0.0000   0.0000   0.0000   0.0000   0.0000
     0.0000   0.0000   0.0000   0.0000   0.0000   0.0000   0.0000   0.0000
     0.0000   0.0000   0.0000   0.0000   0.0000   0.0000   0.0000   0.0000
     0.0000   0.0000   0.0000   0.0000   0.0000   0.0000   0.0000   0.0000
     0.0000   0.0000   0.0000   0.0000   0.0000   0.0000   0.0000   0.0000
     0.0000   0.0000   0.0000   0.0000   0.0000   0.0000   0.0000   0.0000
     0.0000   0.0000   0.0000   0.0000   0.0000   0.0000   0.0000   0.0000
     0.0000   0.0000   0.0000   0.0000   0.0000   0.0000   0.0000   0.0000
     0.0000   0.0000   0.0000   0.0000   0.0000   0.0000   0.0000   0.0000
     0.0000   0.0000   0.0000   0.0000

          k = 0.5000 0.1452-0.0737 (  4854 PWs)   bands (ev):

    -6.2148  -6.2148  -6.1628  -6.1628  -3.7497  -3.7497  -3.6270  -3.6270
     0.7426   0.7426   0.8746   0.8746   2.3650   2.3650   2.4829   2.4829
     4.1989   4.1989   4.5917   4.5917   7.1259   7.1259   7.4714   7.4714
     8.7879   8.7879   8.9728   8.9728   9.7152   9.7152   9.8077   9.8077
    12.2580  12.2580  13.0557  13.0557  14.7995  14.7995  15.8329  15.8329
    16.7030  16.7030  16.9596  16.9596  17.5115  17.5116  18.5467  18.5467
    19.2465  19.2465  19.8301  19.8301  20.0348  20.0348  20.4562  20.4562
    20.9726  20.9727  21.3763  21.3763  21.7258  21.7258  22.6091  22.6091
    22.7907  22.7907  23.1715  23.1716  25.0182  25.0182  25.5629  25.5630
    25.7722  25.7722  26.6274  26.6275  27.6976  27.6977  28.0572  28.0572
    28.7678  28.7679  29.2422  29.2422  29.4880  29.4880  29.5450  29.5450
    30.2808  30.2809  30.6640  30.6640  30.8391  30.8391  31.4215  31.4215
    31.6952  31.6952  32.6216  32.6216

     occupation numbers 
     1.0000   1.0000   1.0000   1.0000   1.0000   1.0000   1.0000   1.0000
     1.0000   1.0000   1.0000   1.0000   1.0000   1.0000   1.0000   1.0000
     1.0000   1.0000   1.0000   1.0000   0.0000   0.0000   0.0000   0.0000
     0.0000   0.0000   0.0000   0.0000   0.0000   0.0000   0.0000   0.0000
     0.0000   0.0000   0.0000   0.0000   0.0000   0.0000   0.0000   0.0000
     0.0000   0.0000   0.0000   0.0000   0.0000   0.0000   0.0000   0.0000
     0.0000   0.0000   0.0000   0.0000   0.0000   0.0000   0.0000   0.0000
     0.0000   0.0000   0.0000   0.0000   0.0000   0.0000   0.0000   0.0000
     0.0000   0.0000   0.0000   0.0000   0.0000   0.0000   0.0000   0.0000
     0.0000   0.0000   0.0000   0.0000   0.0000   0.0000   0.0000   0.0000
     0.0000   0.0000   0.0000   0.0000   0.0000   0.0000   0.0000   0.0000
     0.0000   0.0000   0.0000   0.0000   0.0000   0.0000   0.0000   0.0000
     0.0000   0.0000   0.0000   0.0000

          k = 0.5000 0.2179-0.0737 (  4870 PWs)   bands (ev):

    -6.0959  -6.0959  -6.0551  -6.0551  -3.8323  -3.8323  -3.7535  -3.7535
     0.6370   0.6370   0.8263   0.8263   1.8270   1.8270   2.0407   2.0407
     4.3483   4.3483   4.7240   4.7240   7.7113   7.7113   8.1539   8.1539
     8.7233   8.7233   9.1572   9.1572  10.4208  10.4208  10.6895  10.6895
    12.0326  12.0326  13.1149  13.1149  14.0454  14.0454  15.5432  15.5432
    16.2456  16.2456  17.0457  17.0458  17.6657  17.6657  18.2388  18.2388
    18.7212  18.7212  19.1868  19.1868  19.6716  19.6716  20.2419  20.2419
    20.9523  20.9524  21.1613  21.1613  21.9625  21.9626  22.2055  22.2055
    23.0088  23.0088  23.4329  23.4329  24.1190  24.1190  25.4571  25.4572
    25.9173  25.9173  26.7054  26.7054  27.5480  27.5481  28.0369  28.0369
    28.7975  28.7976  29.2664  29.2664  29.8590  29.8590  30.1973  30.1973
    30.3145  30.3145  30.7409  30.7410  30.9697  30.9697  31.0911  31.0911
    32.0938  32.0938  32.9244  32.9244

     occupation numbers 
     1.0000   1.0000   1.0000   1.0000   1.0000   1.0000   1.0000   1.0000
     1.0000   1.0000   1.0000   1.0000   1.0000   1.0000   1.0000   1.0000
     1.0000   1.0000   1.0000   1.0000   0.0000   0.0000   0.0000   0.0000
     0.0000   0.0000   0.0000   0.0000   0.0000   0.0000   0.0000   0.0000
     0.0000   0.0000   0.0000   0.0000   0.0000   0.0000   0.0000   0.0000
     0.0000   0.0000   0.0000   0.0000   0.0000   0.0000   0.0000   0.0000
     0.0000   0.0000   0.0000   0.0000   0.0000   0.0000   0.0000   0.0000
     0.0000   0.0000   0.0000   0.0000   0.0000   0.0000   0.0000   0.0000
     0.0000   0.0000   0.0000   0.0000   0.0000   0.0000   0.0000   0.0000
     0.0000   0.0000   0.0000   0.0000   0.0000   0.0000   0.0000   0.0000
     0.0000   0.0000   0.0000   0.0000   0.0000   0.0000   0.0000   0.0000
     0.0000   0.0000   0.0000   0.0000   0.0000   0.0000   0.0000   0.0000
     0.0000   0.0000   0.0000   0.0000

          k = 0.5000 0.2905-0.0737 (  4864 PWs)   bands (ev):

    -5.9831  -5.9831  -5.9599  -5.9599  -3.9150  -3.9150  -3.8787  -3.8787
     0.6818   0.6818   0.9032   0.9033   1.3599   1.3599   1.6034   1.6034
     4.4865   4.4865   4.7208   4.7208   8.1331   8.1331   8.3499   8.3499
     9.3120   9.3120   9.4686   9.4686  11.0286  11.0286  11.4306  11.4306
    11.9966  11.9966  12.9275  12.9276  13.6478  13.6478  14.6163  14.6163
    15.9889  15.9889  16.6678  16.6679  17.2317  17.2317  17.6556  17.6557
    18.9108  18.9108  19.4294  19.4294  19.7196  19.7197  20.5172  20.5172
    20.7786  20.7787  20.9902  20.9902  21.7465  21.7466  22.1419  22.1420
    22.5480  22.5480  23.6521  23.6521  24.1671  24.1671  25.2421  25.2421
    25.7699  25.7699  27.0025  27.0025  27.4384  27.4385  27.7492  27.7493
    28.2589  28.2589  29.2312  29.2312  29.4449  29.4449  29.8356  29.8357
    30.7789  30.7790  31.2912  31.2912  31.3568  31.3568  31.8143  31.8144
    32.5388  32.5388  33.0911  33.0911

     occupation numbers 
     1.0000   1.0000   1.0000   1.0000   1.0000   1.0000   1.0000   1.0000
     1.0000   1.0000   1.0000   1.0000   1.0000   1.0000   1.0000   1.0000
     1.0000   1.0000   1.0000   1.0000   0.0000   0.0000   0.0000   0.0000
     0.0000   0.0000   0.0000   0.0000   0.0000   0.0000   0.0000   0.0000
     0.0000   0.0000   0.0000   0.0000   0.0000   0.0000   0.0000   0.0000
     0.0000   0.0000   0.0000   0.0000   0.0000   0.0000   0.0000   0.0000
     0.0000   0.0000   0.0000   0.0000   0.0000   0.0000   0.0000   0.0000
     0.0000   0.0000   0.0000   0.0000   0.0000   0.0000   0.0000   0.0000
     0.0000   0.0000   0.0000   0.0000   0.0000   0.0000   0.0000   0.0000
     0.0000   0.0000   0.0000   0.0000   0.0000   0.0000   0.0000   0.0000
     0.0000   0.0000   0.0000   0.0000   0.0000   0.0000   0.0000   0.0000
     0.0000   0.0000   0.0000   0.0000   0.0000   0.0000   0.0000   0.0000
     0.0000   0.0000   0.0000   0.0000

     highest occupied, lowest unoccupied level (ev):     6.3875    6.4866

     Writing output data file run_output/BP.save/

     init_run     :      0.30s CPU      0.37s WALL (       1 calls)
     electrons    :     40.71s CPU     51.37s WALL (       1 calls)

     Called by init_run:
     wfcinit      :      0.00s CPU      0.01s WALL (       1 calls)
     wfcinit:atom :      0.01s CPU      0.01s WALL (      13 calls)
     wfcinit:wfcr :      1.39s CPU      1.45s WALL (      13 calls)
     potinit      :      0.02s CPU      0.05s WALL (       1 calls)
     hinit0       :      0.07s CPU      0.07s WALL (       1 calls)

     Called by electrons:
     c_bands      :     40.67s CPU     51.31s WALL (       1 calls)
     v_of_rho     :      0.02s CPU      0.02s WALL (       1 calls)
     v_h          :      0.00s CPU      0.00s WALL (       1 calls)
     v_xc         :      0.01s CPU      0.02s WALL (       1 calls)

     Called by c_bands:
     init_us_2    :      0.00s CPU      0.00s WALL (      13 calls)
     cegterg      :     35.23s CPU     35.54s WALL (      13 calls)

     Called by sum_band:

     Called by *egterg:
     cdiaghg      :     16.16s CPU     16.17s WALL (     164 calls)
     cegterg:over :      4.30s CPU      4.34s WALL (     151 calls)
     cegterg:upda :      5.07s CPU      5.07s WALL (     151 calls)
     cegterg:last :      3.59s CPU      3.59s WALL (      26 calls)
     h_psi        :      6.48s CPU      6.78s WALL (     177 calls)
     g_psi        :      0.03s CPU      0.04s WALL (     151 calls)

     Called by h_psi:
     h_psi:calbec :      0.42s CPU      0.42s WALL (     177 calls)
     vloc_psi     :      5.48s CPU      5.77s WALL (     177 calls)
     add_vuspsi   :      0.55s CPU      0.55s WALL (     177 calls)

     General routines
     calbec       :      0.42s CPU      0.42s WALL (     177 calls)
     fft          :      0.01s CPU      0.01s WALL (      10 calls)
     fftw         :      5.22s CPU      5.47s WALL (   19908 calls)
     davcio       :      0.01s CPU     13.68s WALL (      26 calls)

     Parallel routines
     fft_scatt_xy :      0.41s CPU      0.43s WALL (   19918 calls)
     fft_scatt_yz :      1.00s CPU      1.19s WALL (   19918 calls)

     PWSCF        :     43.52s CPU   1m15.98s WALL


   This run was terminated on:  19:12:20  29Jun2021            

=------------------------------------------------------------------------------=
   JOB DONE.
=------------------------------------------------------------------------------=
2 total processes killed (some possibly by mpirun during cleanup)
