
     Program PWSCF v.6.7MaX starts on  9Nov2021 at 16:55:36 

     This program is part of the open-source Quantum ESPRESSO suite
     for quantum simulation of materials; please cite
         "P. Giannozzi et al., J. Phys.:Condens. Matter 21 395502 (2009);
         "P. Giannozzi et al., J. Phys.:Condens. Matter 29 465901 (2017);
          URL http://www.quantum-espresso.org", 
     in publications or presentations arising from this work. More details at
     http://www.quantum-espresso.org/quote

     Parallel version (MPI), running on    84 processors

     MPI processes distributed on     3 nodes
     K-points division:     npool     =       7
     R & G space division:  proc/nbgrp/npool/nimage =      12
     Waiting for input...
     Reading input from standard input

     Current dimensions of program PWSCF are:
     Max number of different atomic species (ntypx) = 10
     Max number of k-points (npk) =  40000
     Max angular momentum in pseudopotentials (lmaxx) =  3

     Atomic positions and unit cell read from directory:
     run_output/GaAs.save/
     Atomic positions from file used, from input discarded


     Subspace diagonalization in iterative solution of the eigenvalue problem:
     one sub-group per band group will be used
     scalapack distributed-memory algorithm (size of sub-group:  3*  3 procs)

     Message from routine setup:
     using ibrav=0 with symmetry is DISCOURAGED, use correct ibrav instead

     Parallelization info
     --------------------
     sticks:   dense  smooth     PW     G-vecs:    dense   smooth      PW
     Min          89      89     27                 1957     1957     328
     Max          90      90     29                 1962     1962     331
     Sum        1069    1069    337                23505    23505    3943



     bravais-lattice index     =            0
     lattice parameter (alat)  =       7.4893  a.u.
     unit-cell volume          =     297.0321 (a.u.)^3
     number of atoms/cell      =            2
     number of atomic types    =            2
     number of electrons       =         8.00
     number of Kohn-Sham states=           70
     kinetic-energy cutoff     =      70.0000  Ry
     charge density cutoff     =     280.0000  Ry
     Exchange-correlation=  SLA  PZ   NOGX NOGC
                           (   1   1   0   0   0   0   0)

     celldm(1)=   7.489269  celldm(2)=   0.000000  celldm(3)=   0.000000
     celldm(4)=   0.000000  celldm(5)=   0.000000  celldm(6)=   0.000000

     crystal axes: (cart. coord. in units of alat)
               a(1) = (   0.000000   0.707107   0.707107 )  
               a(2) = (   0.707107   0.000000   0.707107 )  
               a(3) = (   0.707107   0.707107   0.000000 )  

     reciprocal axes: (cart. coord. in units 2 pi/alat)
               b(1) = ( -0.707107  0.707107  0.707107 )  
               b(2) = (  0.707107 -0.707107  0.707107 )  
               b(3) = (  0.707107  0.707107 -0.707107 )  


     PseudoPot. # 1 for As read from file:
     PPs/As.pz-bhs.UPF
     MD5 check sum: 451cd3365afcfc94d28b1934951c34a8
     Pseudo is Norm-conserving, Zval =  5.0
     Generated by new atomic code, or converted to UPF format
     Using radial grid of  525 points,  2 beta functions with: 
                l(1) =   0
                l(2) =   1

     PseudoPot. # 2 for Ga read from file:
     PPs/Ga_hamlu.fhi.UPF
     MD5 check sum: 4ad1663a8a964d7f0e56f5e6e9567420
     Pseudo is Norm-conserving + core correction, Zval =  3.0
     Generated by new atomic code, or converted to UPF format
     Using radial grid of  529 points,  2 beta functions with: 
                l(1) =   1
                l(2) =   2

     atomic species   valence    mass     pseudopotential
        As             5.00    74.92160     As( 1.00)
        Ga             3.00    69.72300     Ga( 1.00)

     24 Sym. Ops. (no inversion) found


                                    s                        frac. trans.

      isym =  1     identity                                     

 cryst.   s( 1) = (     1          0          0      )
                  (     0          1          0      )
                  (     0          0          1      )

 cart.    s( 1) = (  1.0000000 -0.0000000  0.0000000 )
                  ( -0.0000000  1.0000000  0.0000000 )
                  ( -0.0000000  0.0000000  1.0000000 )


      isym =  2     180 deg rotation - cart. axis [0,0,1]        

 cryst.   s( 2) = (     0          1         -1      )
                  (     1          0         -1      )
                  (     0          0         -1      )

 cart.    s( 2) = ( -1.0000000  0.0000000  0.0000000 )
                  (  0.0000000 -1.0000000  0.0000000 )
                  (  0.0000000 -0.0000000  1.0000000 )


      isym =  3     180 deg rotation - cart. axis [0,1,0]        

 cryst.   s( 3) = (     0         -1          1      )
                  (     0         -1          0      )
                  (     1         -1          0      )

 cart.    s( 3) = ( -1.0000000 -0.0000000 -0.0000000 )
                  (  0.0000000  1.0000000 -0.0000000 )
                  (  0.0000000  0.0000000 -1.0000000 )


      isym =  4     180 deg rotation - cart. axis [1,0,0]        

 cryst.   s( 4) = (    -1          0          0      )
                  (    -1          0          1      )
                  (    -1          1          0      )

 cart.    s( 4) = (  1.0000000  0.0000000 -0.0000000 )
                  ( -0.0000000 -1.0000000 -0.0000000 )
                  ( -0.0000000 -0.0000000 -1.0000000 )


      isym =  5     120 deg rotation - cart. axis [-1,-1,-1]     

 cryst.   s( 5) = (     0          0          1      )
                  (     1          0          0      )
                  (     0          1          0      )

 cart.    s( 5) = (  0.0000000  1.0000000 -0.0000000 )
                  (  0.0000000 -0.0000000  1.0000000 )
                  (  1.0000000 -0.0000000  0.0000000 )


      isym =  6     120 deg rotation - cart. axis [-1,1,1]       

 cryst.   s( 6) = (     1         -1          0      )
                  (     0         -1          1      )
                  (     0         -1          0      )

 cart.    s( 6) = ( -0.0000000 -1.0000000 -0.0000000 )
                  ( -0.0000000  0.0000000  1.0000000 )
                  ( -1.0000000  0.0000000  0.0000000 )


      isym =  7     120 deg rotation - cart. axis [1,1,-1]       

 cryst.   s( 7) = (    -1          1          0      )
                  (    -1          0          0      )
                  (    -1          0          1      )

 cart.    s( 7) = ( -0.0000000  1.0000000  0.0000000 )
                  ( -0.0000000 -0.0000000 -1.0000000 )
                  ( -1.0000000 -0.0000000 -0.0000000 )


      isym =  8     120 deg rotation - cart. axis [1,-1,1]       

 cryst.   s( 8) = (     0          0         -1      )
                  (     0          1         -1      )
                  (     1          0         -1      )

 cart.    s( 8) = (  0.0000000 -1.0000000  0.0000000 )
                  (  0.0000000  0.0000000 -1.0000000 )
                  (  1.0000000  0.0000000 -0.0000000 )


      isym =  9     120 deg rotation - cart. axis [1,1,1]        

 cryst.   s( 9) = (     0          1          0      )
                  (     0          0          1      )
                  (     1          0          0      )

 cart.    s( 9) = ( -0.0000000  0.0000000  1.0000000 )
                  (  1.0000000  0.0000000 -0.0000000 )
                  (  0.0000000  1.0000000 -0.0000000 )


      isym = 10     120 deg rotation - cart. axis [-1,1,-1]      

 cryst.   s(10) = (    -1          0          1      )
                  (    -1          1          0      )
                  (    -1          0          0      )

 cart.    s(10) = (  0.0000000 -0.0000000  1.0000000 )
                  ( -1.0000000 -0.0000000 -0.0000000 )
                  ( -0.0000000 -1.0000000 -0.0000000 )


      isym = 11     120 deg rotation - cart. axis [1,-1,-1]      

 cryst.   s(11) = (     1          0         -1      )
                  (     0          0         -1      )
                  (     0          1         -1      )

 cart.    s(11) = (  0.0000000  0.0000000 -1.0000000 )
                  ( -1.0000000  0.0000000  0.0000000 )
                  ( -0.0000000  1.0000000  0.0000000 )


      isym = 12     120 deg rotation - cart. axis [-1,-1,1]      

 cryst.   s(12) = (     0         -1          0      )
                  (     1         -1          0      )
                  (     0         -1          1      )

 cart.    s(12) = ( -0.0000000 -0.0000000 -1.0000000 )
                  (  1.0000000 -0.0000000  0.0000000 )
                  (  0.0000000 -1.0000000  0.0000000 )


      isym = 13     inv. 180 deg rotation - cart. axis [1,1,0]   

 cryst.   s(13) = (     1          0         -1      )
                  (     0          1         -1      )
                  (     0          0         -1      )

 cart.    s(13) = (  0.0000000 -1.0000000  0.0000000 )
                  ( -1.0000000  0.0000000  0.0000000 )
                  ( -0.0000000  0.0000000  1.0000000 )


      isym = 14     inv. 180 deg rotation - cart. axis [1,-1,0]  

 cryst.   s(14) = (     0          1          0      )
                  (     1          0          0      )
                  (     0          0          1      )

 cart.    s(14) = ( -0.0000000  1.0000000  0.0000000 )
                  (  1.0000000 -0.0000000  0.0000000 )
                  (  0.0000000 -0.0000000  1.0000000 )


      isym = 15     inv.  90 deg rotation - cart. axis [0,0,-1]  

 cryst.   s(15) = (     0         -1          0      )
                  (     0         -1          1      )
                  (     1         -1          0      )

 cart.    s(15) = ( -0.0000000 -1.0000000 -0.0000000 )
                  (  1.0000000  0.0000000 -0.0000000 )
                  (  0.0000000  0.0000000 -1.0000000 )


      isym = 16     inv.  90 deg rotation - cart. axis [0,0,1]   

 cryst.   s(16) = (    -1          0          1      )
                  (    -1          0          0      )
                  (    -1          1          0      )

 cart.    s(16) = (  0.0000000  1.0000000 -0.0000000 )
                  ( -1.0000000 -0.0000000 -0.0000000 )
                  ( -0.0000000 -0.0000000 -1.0000000 )


      isym = 17     inv. 180 deg rotation - cart. axis [1,0,1]   

 cryst.   s(17) = (     1         -1          0      )
                  (     0         -1          0      )
                  (     0         -1          1      )

 cart.    s(17) = ( -0.0000000 -0.0000000 -1.0000000 )
                  ( -0.0000000  1.0000000  0.0000000 )
                  ( -1.0000000  0.0000000  0.0000000 )


      isym = 18     inv. 180 deg rotation - cart. axis [-1,0,1]  

 cryst.   s(18) = (     0          0          1      )
                  (     0          1          0      )
                  (     1          0          0      )

 cart.    s(18) = (  0.0000000 -0.0000000  1.0000000 )
                  (  0.0000000  1.0000000 -0.0000000 )
                  (  1.0000000  0.0000000 -0.0000000 )


      isym = 19     inv.  90 deg rotation - cart. axis [0,1,0]   

 cryst.   s(19) = (     0          0         -1      )
                  (     1          0         -1      )
                  (     0          1         -1      )

 cart.    s(19) = (  0.0000000  0.0000000 -1.0000000 )
                  (  0.0000000 -1.0000000  0.0000000 )
                  (  1.0000000 -0.0000000  0.0000000 )


      isym = 20     inv.  90 deg rotation - cart. axis [0,-1,0]  

 cryst.   s(20) = (    -1          1          0      )
                  (    -1          0          1      )
                  (    -1          0          0      )

 cart.    s(20) = ( -0.0000000  0.0000000  1.0000000 )
                  ( -0.0000000 -1.0000000 -0.0000000 )
                  ( -1.0000000 -0.0000000 -0.0000000 )


      isym = 21     inv. 180 deg rotation - cart. axis [0,1,1]   

 cryst.   s(21) = (    -1          0          0      )
                  (    -1          1          0      )
                  (    -1          0          1      )

 cart.    s(21) = (  1.0000000 -0.0000000  0.0000000 )
                  ( -0.0000000 -0.0000000 -1.0000000 )
                  ( -0.0000000 -1.0000000 -0.0000000 )


      isym = 22     inv. 180 deg rotation - cart. axis [0,1,-1]  

 cryst.   s(22) = (     1          0          0      )
                  (     0          0          1      )
                  (     0          1          0      )

 cart.    s(22) = (  1.0000000  0.0000000 -0.0000000 )
                  ( -0.0000000  0.0000000  1.0000000 )
                  ( -0.0000000  1.0000000  0.0000000 )


      isym = 23     inv.  90 deg rotation - cart. axis [-1,0,0]  

 cryst.   s(23) = (     0          1         -1      )
                  (     0          0         -1      )
                  (     1          0         -1      )

 cart.    s(23) = ( -1.0000000  0.0000000  0.0000000 )
                  (  0.0000000  0.0000000 -1.0000000 )
                  (  0.0000000  1.0000000 -0.0000000 )


      isym = 24     inv.  90 deg rotation - cart. axis [1,0,0]   

 cryst.   s(24) = (     0         -1          1      )
                  (     1         -1          0      )
                  (     0         -1          0      )

 cart.    s(24) = ( -1.0000000 -0.0000000 -0.0000000 )
                  (  0.0000000 -0.0000000  1.0000000 )
                  (  0.0000000 -1.0000000  0.0000000 )


   Cartesian axes

     site n.     atom                  positions (alat units)
         1           Ga  tau(   1) = (   0.0000000   0.0000000   0.0000000  )
         2           As  tau(   2) = (   0.3535534   1.0606602   1.0606602  )

   Crystallographic axes

     site n.     atom                  positions (cryst. coord.)
         1           Ga  tau(   1) = (  0.0000000  0.0000000  0.0000000  )
         2           As  tau(   2) = (  1.2500000  0.2500000  0.2500000  )

     number of k points=   110
                       cart. coord. in units 2pi/alat
        k(    1) = (   0.0353553   0.0353553   0.0353553), wk =   0.0040000
        k(    2) = (   0.1060660   0.1060660  -0.0353553), wk =   0.0120000
        k(    3) = (   0.1767767   0.1767767  -0.1060660), wk =   0.0120000
        k(    4) = (   0.2474874   0.2474874  -0.1767767), wk =   0.0120000
        k(    5) = (   0.3181981   0.3181981  -0.2474874), wk =   0.0120000
        k(    6) = (  -0.3181981  -0.3181981   0.3889087), wk =   0.0120000
        k(    7) = (  -0.2474874  -0.2474874   0.3181981), wk =   0.0120000
        k(    8) = (  -0.1767767  -0.1767767   0.2474874), wk =   0.0120000
        k(    9) = (  -0.1060660  -0.1060660   0.1767767), wk =   0.0120000
        k(   10) = (  -0.0353553  -0.0353553   0.1060660), wk =   0.0120000
        k(   11) = (   0.1767767   0.0353553   0.0353553), wk =   0.0120000
        k(   12) = (   0.2474874   0.1060660  -0.0353553), wk =   0.0240000
        k(   13) = (   0.3181981   0.1767767  -0.1060660), wk =   0.0240000
        k(   14) = (   0.3889087   0.2474874  -0.1767767), wk =   0.0240000
        k(   15) = (  -0.2474874  -0.3889087   0.4596194), wk =   0.0240000
        k(   16) = (  -0.1767767  -0.3181981   0.3889087), wk =   0.0240000
        k(   17) = (  -0.1060660  -0.2474874   0.3181981), wk =   0.0240000
        k(   18) = (  -0.0353553  -0.1767767   0.2474874), wk =   0.0240000
        k(   19) = (   0.0353553  -0.1060660   0.1767767), wk =   0.0240000
        k(   20) = (   0.3181981   0.0353553   0.0353553), wk =   0.0120000
        k(   21) = (   0.3889087   0.1060660  -0.0353553), wk =   0.0240000
        k(   22) = (   0.4596194   0.1767767  -0.1060660), wk =   0.0240000
        k(   23) = (  -0.1767767  -0.4596194   0.5303301), wk =   0.0240000
        k(   24) = (  -0.1060660  -0.3889087   0.4596194), wk =   0.0240000
        k(   25) = (  -0.0353553  -0.3181981   0.3889087), wk =   0.0240000
        k(   26) = (   0.0353553  -0.2474874   0.3181981), wk =   0.0240000
        k(   27) = (   0.1060660  -0.1767767   0.2474874), wk =   0.0240000
        k(   28) = (   0.4596194   0.0353553   0.0353553), wk =   0.0120000
        k(   29) = (   0.5303301   0.1060660  -0.0353553), wk =   0.0240000
        k(   30) = (  -0.1060660  -0.5303301   0.6010408), wk =   0.0240000
        k(   31) = (  -0.0353553  -0.4596194   0.5303301), wk =   0.0240000
        k(   32) = (   0.0353553  -0.3889087   0.4596194), wk =   0.0240000
        k(   33) = (   0.1060660  -0.3181981   0.3889087), wk =   0.0240000
        k(   34) = (   0.1767767  -0.2474874   0.3181981), wk =   0.0240000
        k(   35) = (   0.6010408   0.0353553   0.0353553), wk =   0.0120000
        k(   36) = (  -0.0353553  -0.6010408   0.6717514), wk =   0.0240000
        k(   37) = (   0.0353553  -0.5303301   0.6010408), wk =   0.0240000
        k(   38) = (   0.1060660  -0.4596194   0.5303301), wk =   0.0240000
        k(   39) = (   0.1767767  -0.3889087   0.4596194), wk =   0.0240000
        k(   40) = (   0.2474874  -0.3181981   0.3889087), wk =   0.0240000
        k(   41) = (  -0.6717514   0.0353553   0.0353553), wk =   0.0120000
        k(   42) = (  -0.6010408   0.1060660  -0.0353553), wk =   0.0240000
        k(   43) = (  -0.5303301   0.1767767  -0.1060660), wk =   0.0240000
        k(   44) = (  -0.4596194   0.2474874  -0.1767767), wk =   0.0240000
        k(   45) = (  -0.5303301   0.0353553   0.0353553), wk =   0.0120000
        k(   46) = (  -0.4596194   0.1060660  -0.0353553), wk =   0.0240000
        k(   47) = (  -0.3889087   0.1767767  -0.1060660), wk =   0.0240000
        k(   48) = (  -0.3889087   0.0353553   0.0353553), wk =   0.0120000
        k(   49) = (  -0.3181981   0.1060660  -0.0353553), wk =   0.0240000
        k(   50) = (  -0.2474874   0.0353553   0.0353553), wk =   0.0120000
        k(   51) = (   0.1060660   0.1060660   0.1060660), wk =   0.0040000
        k(   52) = (   0.1767767   0.1767767   0.0353553), wk =   0.0120000
        k(   53) = (   0.2474874   0.2474874  -0.0353553), wk =   0.0120000
        k(   54) = (   0.3181981   0.3181981  -0.1060660), wk =   0.0120000
        k(   55) = (  -0.3181981  -0.3181981   0.5303301), wk =   0.0120000
        k(   56) = (  -0.2474874  -0.2474874   0.4596194), wk =   0.0120000
        k(   57) = (  -0.1767767  -0.1767767   0.3889087), wk =   0.0120000
        k(   58) = (  -0.1060660  -0.1060660   0.3181981), wk =   0.0120000
        k(   59) = (   0.2474874   0.1060660   0.1060660), wk =   0.0120000
        k(   60) = (   0.3181981   0.1767767   0.0353553), wk =   0.0240000
        k(   61) = (   0.3889087   0.2474874  -0.0353553), wk =   0.0240000
        k(   62) = (  -0.2474874  -0.3889087   0.6010408), wk =   0.0240000
        k(   63) = (  -0.1767767  -0.3181981   0.5303301), wk =   0.0240000
        k(   64) = (  -0.1060660  -0.2474874   0.4596194), wk =   0.0240000
        k(   65) = (  -0.0353553  -0.1767767   0.3889087), wk =   0.0240000
        k(   66) = (   0.3889087   0.1060660   0.1060660), wk =   0.0120000
        k(   67) = (   0.4596194   0.1767767   0.0353553), wk =   0.0240000
        k(   68) = (  -0.1767767  -0.4596194   0.6717514), wk =   0.0240000
        k(   69) = (  -0.1060660  -0.3889087   0.6010408), wk =   0.0240000
        k(   70) = (  -0.0353553  -0.3181981   0.5303301), wk =   0.0240000
        k(   71) = (   0.0353553  -0.2474874   0.4596194), wk =   0.0240000
        k(   72) = (   0.5303301   0.1060660   0.1060660), wk =   0.0120000
        k(   73) = (  -0.1060660  -0.5303301   0.7424621), wk =   0.0240000
        k(   74) = (  -0.0353553  -0.4596194   0.6717514), wk =   0.0240000
        k(   75) = (   0.0353553  -0.3889087   0.6010408), wk =   0.0240000
        k(   76) = (   0.1060660  -0.3181981   0.5303301), wk =   0.0240000
        k(   77) = (  -0.7424621   0.1060660   0.1060660), wk =   0.0120000
        k(   78) = (  -0.6717514   0.1767767   0.0353553), wk =   0.0240000
        k(   79) = (  -0.6010408   0.2474874  -0.0353553), wk =   0.0240000
        k(   80) = (  -0.6010408   0.1060660   0.1060660), wk =   0.0120000
        k(   81) = (  -0.5303301   0.1767767   0.0353553), wk =   0.0240000
        k(   82) = (  -0.4596194   0.1060660   0.1060660), wk =   0.0120000
        k(   83) = (   0.1767767   0.1767767   0.1767767), wk =   0.0040000
        k(   84) = (   0.2474874   0.2474874   0.1060660), wk =   0.0120000
        k(   85) = (   0.3181981   0.3181981   0.0353553), wk =   0.0120000
        k(   86) = (  -0.3181981  -0.3181981   0.6717514), wk =   0.0120000
        k(   87) = (  -0.2474874  -0.2474874   0.6010408), wk =   0.0120000
        k(   88) = (  -0.1767767  -0.1767767   0.5303301), wk =   0.0120000
        k(   89) = (   0.3181981   0.1767767   0.1767767), wk =   0.0120000
        k(   90) = (   0.3889087   0.2474874   0.1060660), wk =   0.0240000
        k(   91) = (  -0.2474874  -0.3889087   0.7424621), wk =   0.0240000
        k(   92) = (  -0.1767767  -0.3181981   0.6717514), wk =   0.0240000
        k(   93) = (  -0.1060660  -0.2474874   0.6010408), wk =   0.0240000
        k(   94) = (   0.4596194   0.1767767   0.1767767), wk =   0.0120000
        k(   95) = (  -0.1767767  -0.4596194   0.8131728), wk =   0.0240000
        k(   96) = (  -0.1060660  -0.3889087   0.7424621), wk =   0.0240000
        k(   97) = (  -0.0353553  -0.3181981   0.6717514), wk =   0.0240000
        k(   98) = (  -0.8131728   0.1767767   0.1767767), wk =   0.0120000
        k(   99) = (  -0.7424621   0.2474874   0.1060660), wk =   0.0240000
        k(  100) = (  -0.6717514   0.1767767   0.1767767), wk =   0.0120000
        k(  101) = (   0.2474874   0.2474874   0.2474874), wk =   0.0040000
        k(  102) = (   0.3181981   0.3181981   0.1767767), wk =   0.0120000
        k(  103) = (  -0.3181981  -0.3181981   0.8131728), wk =   0.0120000
        k(  104) = (  -0.2474874  -0.2474874   0.7424621), wk =   0.0120000
        k(  105) = (   0.3889087   0.2474874   0.2474874), wk =   0.0120000
        k(  106) = (  -0.2474874  -0.3889087   0.8838835), wk =   0.0240000
        k(  107) = (  -0.1767767  -0.3181981   0.8131728), wk =   0.0240000
        k(  108) = (  -0.8838835   0.2474874   0.2474874), wk =   0.0120000
        k(  109) = (   0.3181981   0.3181981   0.3181981), wk =   0.0040000
        k(  110) = (  -0.3181981  -0.3181981   0.9545942), wk =   0.0120000

                       cryst. coord.
        k(    1) = (   0.0500000   0.0500000   0.0500000), wk =   0.0040000
        k(    2) = (   0.0500000   0.0500000   0.1500000), wk =   0.0120000
        k(    3) = (   0.0500000   0.0500000   0.2500000), wk =   0.0120000
        k(    4) = (   0.0500000   0.0500000   0.3500000), wk =   0.0120000
        k(    5) = (   0.0500000   0.0500000   0.4500000), wk =   0.0120000
        k(    6) = (   0.0500000   0.0500000  -0.4500000), wk =   0.0120000
        k(    7) = (   0.0500000   0.0500000  -0.3500000), wk =   0.0120000
        k(    8) = (   0.0500000   0.0500000  -0.2500000), wk =   0.0120000
        k(    9) = (   0.0500000   0.0500000  -0.1500000), wk =   0.0120000
        k(   10) = (   0.0500000   0.0500000  -0.0500000), wk =   0.0120000
        k(   11) = (   0.0500000   0.1500000   0.1500000), wk =   0.0120000
        k(   12) = (   0.0500000   0.1500000   0.2500000), wk =   0.0240000
        k(   13) = (   0.0500000   0.1500000   0.3500000), wk =   0.0240000
        k(   14) = (   0.0500000   0.1500000   0.4500000), wk =   0.0240000
        k(   15) = (   0.0500000   0.1500000  -0.4500000), wk =   0.0240000
        k(   16) = (   0.0500000   0.1500000  -0.3500000), wk =   0.0240000
        k(   17) = (   0.0500000   0.1500000  -0.2500000), wk =   0.0240000
        k(   18) = (   0.0500000   0.1500000  -0.1500000), wk =   0.0240000
        k(   19) = (   0.0500000   0.1500000  -0.0500000), wk =   0.0240000
        k(   20) = (   0.0500000   0.2500000   0.2500000), wk =   0.0120000
        k(   21) = (   0.0500000   0.2500000   0.3500000), wk =   0.0240000
        k(   22) = (   0.0500000   0.2500000   0.4500000), wk =   0.0240000
        k(   23) = (   0.0500000   0.2500000  -0.4500000), wk =   0.0240000
        k(   24) = (   0.0500000   0.2500000  -0.3500000), wk =   0.0240000
        k(   25) = (   0.0500000   0.2500000  -0.2500000), wk =   0.0240000
        k(   26) = (   0.0500000   0.2500000  -0.1500000), wk =   0.0240000
        k(   27) = (   0.0500000   0.2500000  -0.0500000), wk =   0.0240000
        k(   28) = (   0.0500000   0.3500000   0.3500000), wk =   0.0120000
        k(   29) = (   0.0500000   0.3500000   0.4500000), wk =   0.0240000
        k(   30) = (   0.0500000   0.3500000  -0.4500000), wk =   0.0240000
        k(   31) = (   0.0500000   0.3500000  -0.3500000), wk =   0.0240000
        k(   32) = (   0.0500000   0.3500000  -0.2500000), wk =   0.0240000
        k(   33) = (   0.0500000   0.3500000  -0.1500000), wk =   0.0240000
        k(   34) = (   0.0500000   0.3500000  -0.0500000), wk =   0.0240000
        k(   35) = (   0.0500000   0.4500000   0.4500000), wk =   0.0120000
        k(   36) = (   0.0500000   0.4500000  -0.4500000), wk =   0.0240000
        k(   37) = (   0.0500000   0.4500000  -0.3500000), wk =   0.0240000
        k(   38) = (   0.0500000   0.4500000  -0.2500000), wk =   0.0240000
        k(   39) = (   0.0500000   0.4500000  -0.1500000), wk =   0.0240000
        k(   40) = (   0.0500000   0.4500000  -0.0500000), wk =   0.0240000
        k(   41) = (   0.0500000  -0.4500000  -0.4500000), wk =   0.0120000
        k(   42) = (   0.0500000  -0.4500000  -0.3500000), wk =   0.0240000
        k(   43) = (   0.0500000  -0.4500000  -0.2500000), wk =   0.0240000
        k(   44) = (   0.0500000  -0.4500000  -0.1500000), wk =   0.0240000
        k(   45) = (   0.0500000  -0.3500000  -0.3500000), wk =   0.0120000
        k(   46) = (   0.0500000  -0.3500000  -0.2500000), wk =   0.0240000
        k(   47) = (   0.0500000  -0.3500000  -0.1500000), wk =   0.0240000
        k(   48) = (   0.0500000  -0.2500000  -0.2500000), wk =   0.0120000
        k(   49) = (   0.0500000  -0.2500000  -0.1500000), wk =   0.0240000
        k(   50) = (   0.0500000  -0.1500000  -0.1500000), wk =   0.0120000
        k(   51) = (   0.1500000   0.1500000   0.1500000), wk =   0.0040000
        k(   52) = (   0.1500000   0.1500000   0.2500000), wk =   0.0120000
        k(   53) = (   0.1500000   0.1500000   0.3500000), wk =   0.0120000
        k(   54) = (   0.1500000   0.1500000   0.4500000), wk =   0.0120000
        k(   55) = (   0.1500000   0.1500000  -0.4500000), wk =   0.0120000
        k(   56) = (   0.1500000   0.1500000  -0.3500000), wk =   0.0120000
        k(   57) = (   0.1500000   0.1500000  -0.2500000), wk =   0.0120000
        k(   58) = (   0.1500000   0.1500000  -0.1500000), wk =   0.0120000
        k(   59) = (   0.1500000   0.2500000   0.2500000), wk =   0.0120000
        k(   60) = (   0.1500000   0.2500000   0.3500000), wk =   0.0240000
        k(   61) = (   0.1500000   0.2500000   0.4500000), wk =   0.0240000
        k(   62) = (   0.1500000   0.2500000  -0.4500000), wk =   0.0240000
        k(   63) = (   0.1500000   0.2500000  -0.3500000), wk =   0.0240000
        k(   64) = (   0.1500000   0.2500000  -0.2500000), wk =   0.0240000
        k(   65) = (   0.1500000   0.2500000  -0.1500000), wk =   0.0240000
        k(   66) = (   0.1500000   0.3500000   0.3500000), wk =   0.0120000
        k(   67) = (   0.1500000   0.3500000   0.4500000), wk =   0.0240000
        k(   68) = (   0.1500000   0.3500000  -0.4500000), wk =   0.0240000
        k(   69) = (   0.1500000   0.3500000  -0.3500000), wk =   0.0240000
        k(   70) = (   0.1500000   0.3500000  -0.2500000), wk =   0.0240000
        k(   71) = (   0.1500000   0.3500000  -0.1500000), wk =   0.0240000
        k(   72) = (   0.1500000   0.4500000   0.4500000), wk =   0.0120000
        k(   73) = (   0.1500000   0.4500000  -0.4500000), wk =   0.0240000
        k(   74) = (   0.1500000   0.4500000  -0.3500000), wk =   0.0240000
        k(   75) = (   0.1500000   0.4500000  -0.2500000), wk =   0.0240000
        k(   76) = (   0.1500000   0.4500000  -0.1500000), wk =   0.0240000
        k(   77) = (   0.1500000  -0.4500000  -0.4500000), wk =   0.0120000
        k(   78) = (   0.1500000  -0.4500000  -0.3500000), wk =   0.0240000
        k(   79) = (   0.1500000  -0.4500000  -0.2500000), wk =   0.0240000
        k(   80) = (   0.1500000  -0.3500000  -0.3500000), wk =   0.0120000
        k(   81) = (   0.1500000  -0.3500000  -0.2500000), wk =   0.0240000
        k(   82) = (   0.1500000  -0.2500000  -0.2500000), wk =   0.0120000
        k(   83) = (   0.2500000   0.2500000   0.2500000), wk =   0.0040000
        k(   84) = (   0.2500000   0.2500000   0.3500000), wk =   0.0120000
        k(   85) = (   0.2500000   0.2500000   0.4500000), wk =   0.0120000
        k(   86) = (   0.2500000   0.2500000  -0.4500000), wk =   0.0120000
        k(   87) = (   0.2500000   0.2500000  -0.3500000), wk =   0.0120000
        k(   88) = (   0.2500000   0.2500000  -0.2500000), wk =   0.0120000
        k(   89) = (   0.2500000   0.3500000   0.3500000), wk =   0.0120000
        k(   90) = (   0.2500000   0.3500000   0.4500000), wk =   0.0240000
        k(   91) = (   0.2500000   0.3500000  -0.4500000), wk =   0.0240000
        k(   92) = (   0.2500000   0.3500000  -0.3500000), wk =   0.0240000
        k(   93) = (   0.2500000   0.3500000  -0.2500000), wk =   0.0240000
        k(   94) = (   0.2500000   0.4500000   0.4500000), wk =   0.0120000
        k(   95) = (   0.2500000   0.4500000  -0.4500000), wk =   0.0240000
        k(   96) = (   0.2500000   0.4500000  -0.3500000), wk =   0.0240000
        k(   97) = (   0.2500000   0.4500000  -0.2500000), wk =   0.0240000
        k(   98) = (   0.2500000  -0.4500000  -0.4500000), wk =   0.0120000
        k(   99) = (   0.2500000  -0.4500000  -0.3500000), wk =   0.0240000
        k(  100) = (   0.2500000  -0.3500000  -0.3500000), wk =   0.0120000
        k(  101) = (   0.3500000   0.3500000   0.3500000), wk =   0.0040000
        k(  102) = (   0.3500000   0.3500000   0.4500000), wk =   0.0120000
        k(  103) = (   0.3500000   0.3500000  -0.4500000), wk =   0.0120000
        k(  104) = (   0.3500000   0.3500000  -0.3500000), wk =   0.0120000
        k(  105) = (   0.3500000   0.4500000   0.4500000), wk =   0.0120000
        k(  106) = (   0.3500000   0.4500000  -0.4500000), wk =   0.0240000
        k(  107) = (   0.3500000   0.4500000  -0.3500000), wk =   0.0240000
        k(  108) = (   0.3500000  -0.4500000  -0.4500000), wk =   0.0120000
        k(  109) = (   0.4500000   0.4500000   0.4500000), wk =   0.0040000
        k(  110) = (   0.4500000   0.4500000  -0.4500000), wk =   0.0120000

     Dense  grid:    23505 G-vectors     FFT dimensions: (  40,  40,  40)

     Dynamical RAM for                 wfc:       0.26 MB

     Dynamical RAM for     wfc (w. buffer):       0.26 MB

     Dynamical RAM for           str. fact:       0.06 MB

     Dynamical RAM for           local pot:       0.00 MB

     Dynamical RAM for          nlocal pot:       0.04 MB

     Dynamical RAM for                qrad:       0.38 MB

     Dynamical RAM for          rho,v,vnew:       0.24 MB

     Dynamical RAM for           G-vectors:       0.13 MB

     Dynamical RAM for          h,s,v(r/c):       0.10 MB

     Dynamical RAM for          <psi|beta>:       0.01 MB

     Dynamical RAM for                 psi:       0.52 MB

     Dynamical RAM for                hpsi:       0.52 MB

     Dynamical RAM for      wfcinit/wfcrot:       0.63 MB

     Estimated static dynamical RAM per process >       1.45 MB

     Estimated max dynamical RAM per process >       2.60 MB

     Estimated total dynamical RAM >     218.22 MB

     The potential is recalculated from file :
     run_output/GaAs.save/charge-density

     Starting wfcs are   13 randomized atomic wfcs +   57 random wfcs

     Band Structure Calculation
     Davidson diagonalization with overlap

     Computing kpt #:     1  of    16 on this pool
     total cpu time spent up to now is        1.4 secs

     Computing kpt #:     2  of    16 on this pool
     total cpu time spent up to now is        1.9 secs

     Computing kpt #:     3  of    16 on this pool
     total cpu time spent up to now is        2.5 secs

     Computing kpt #:     4  of    16 on this pool
     total cpu time spent up to now is        3.0 secs

     Computing kpt #:     5  of    16 on this pool
     total cpu time spent up to now is        3.5 secs

     Computing kpt #:     6  of    16 on this pool
     total cpu time spent up to now is        3.9 secs

     Computing kpt #:     7  of    16 on this pool
     total cpu time spent up to now is        4.4 secs

     Computing kpt #:     8  of    16 on this pool
     total cpu time spent up to now is        4.9 secs

     Computing kpt #:     9  of    16 on this pool
     total cpu time spent up to now is        5.4 secs

     Computing kpt #:    10  of    16 on this pool
     total cpu time spent up to now is        6.0 secs

     Computing kpt #:    11  of    16 on this pool
     total cpu time spent up to now is        7.5 secs

     Computing kpt #:    12  of    16 on this pool
     total cpu time spent up to now is        8.0 secs

     Computing kpt #:    13  of    16 on this pool
     total cpu time spent up to now is        8.4 secs

     Computing kpt #:    14  of    16 on this pool
     total cpu time spent up to now is        8.9 secs

     Computing kpt #:    15  of    16 on this pool
     total cpu time spent up to now is        9.4 secs

     Computing kpt #:    16  of    16 on this pool
     total cpu time spent up to now is        9.8 secs

     ethr =  5.00E-06,  avg # of iterations = 17.5

     total cpu time spent up to now is        9.9 secs

     End of band structure calculation

          k = 0.0354 0.0354 0.0354 (  2918 PWs)   bands (ev):

    -7.8276   4.4172   4.9567   4.9567   6.2492   8.8173   8.8414   8.8414
    12.8220  14.9924  14.9924  16.5073  17.0704  17.0704  19.8489  28.9358
    29.2502  29.2502  31.3253  31.3253  32.2597  32.6137  32.6137  33.5749
    34.7766  34.7766  40.9967  43.0898  43.1070  43.1070  44.7737  44.7737
    45.3620  45.7420  45.7420  46.7717  46.7717  47.3822  47.7180  47.7292
    47.7292  48.3453  48.6220  48.6220  49.4941  49.5211  49.5211  50.3659
    50.8389  50.8389  52.0919  53.8153  53.8153  53.9158  55.7636  55.7636
    56.5378  59.4186  60.8324  69.2580  69.2580  70.1849  72.8616  72.8616
    73.7199  76.2725  76.2725  76.8924  79.3777  79.3777

     occupation numbers 
     1.0000   1.0000   1.0000   1.0000   0.0000   0.0000   0.0000   0.0000
     0.0000   0.0000   0.0000   0.0000   0.0000   0.0000   0.0000   0.0000
     0.0000   0.0000   0.0000   0.0000   0.0000   0.0000   0.0000   0.0000
     0.0000   0.0000   0.0000   0.0000   0.0000   0.0000   0.0000   0.0000
     0.0000   0.0000   0.0000   0.0000   0.0000   0.0000   0.0000   0.0000
     0.0000   0.0000   0.0000   0.0000   0.0000   0.0000   0.0000   0.0000
     0.0000   0.0000   0.0000   0.0000   0.0000   0.0000   0.0000   0.0000
     0.0000   0.0000   0.0000   0.0000   0.0000   0.0000   0.0000   0.0000
     0.0000   0.0000   0.0000   0.0000   0.0000   0.0000

          k = 0.1061 0.1061-0.0354 (  2908 PWs)   bands (ev):

    -7.6826   3.1035   4.4812   4.8815   6.9553   8.9114   8.9876   9.5650
    13.6287  14.0227  14.5845  16.3995  17.5838  18.6860  21.1023  26.7455
    27.7218  28.3350  30.2355  30.7305  32.3254  32.7395  33.7694  34.8434
    36.5263  37.8681  39.2820  41.0496  41.0547  42.3036  43.0543  43.3886
    43.7837  44.8771  45.2447  45.4550  46.2084  46.5574  46.6755  47.9770
    48.3102  49.1030  49.2802  49.4236  50.0681  50.7337  51.0887  51.5121
    52.1183  53.4350  53.7464  54.0477  54.6017  54.8475  56.2236  57.5747
    58.8678  60.5114  62.3030  65.9462  67.3235  69.6935  72.1391  73.0331
    73.7777  75.1393  76.1871  76.5622  78.0693  78.4360

     occupation numbers 
     1.0000   1.0000   1.0000   1.0000   0.0000   0.0000   0.0000   0.0000
     0.0000   0.0000   0.0000   0.0000   0.0000   0.0000   0.0000   0.0000
     0.0000   0.0000   0.0000   0.0000   0.0000   0.0000   0.0000   0.0000
     0.0000   0.0000   0.0000   0.0000   0.0000   0.0000   0.0000   0.0000
     0.0000   0.0000   0.0000   0.0000   0.0000   0.0000   0.0000   0.0000
     0.0000   0.0000   0.0000   0.0000   0.0000   0.0000   0.0000   0.0000
     0.0000   0.0000   0.0000   0.0000   0.0000   0.0000   0.0000   0.0000
     0.0000   0.0000   0.0000   0.0000   0.0000   0.0000   0.0000   0.0000
     0.0000   0.0000   0.0000   0.0000   0.0000   0.0000

          k = 0.1768 0.1768-0.1061 (  2921 PWs)   bands (ev):

    -7.3346   1.3456   4.0434   4.5641   6.9207   9.4079   9.5846  10.5983
    13.6013  14.0677  14.7014  16.5857  19.6330  20.7865  23.1868  23.9939
    25.3929  25.5879  30.3531  30.7003  32.5409  33.0833  35.1593  35.5978
    36.2106  37.5593  38.5512  39.9289  40.1413  40.9652  41.3883  41.8485
    41.8943  43.0968  43.8186  44.3577  45.1208  45.7132  46.2970  47.8069
    48.9437  49.2655  49.3221  50.8789  50.9718  52.5839  53.5170  53.9457
    54.5815  54.6141  56.1463  56.7435  58.0112  58.6417  58.7658  59.8080
    60.4207  62.5746  62.7851  64.2057  66.4885  67.5701  68.7934  69.6154
    71.3152  72.8399  74.2001  76.1568  76.5679  77.7191

     occupation numbers 
     1.0000   1.0000   1.0000   1.0000   0.0000   0.0000   0.0000   0.0000
     0.0000   0.0000   0.0000   0.0000   0.0000   0.0000   0.0000   0.0000
     0.0000   0.0000   0.0000   0.0000   0.0000   0.0000   0.0000   0.0000
     0.0000   0.0000   0.0000   0.0000   0.0000   0.0000   0.0000   0.0000
     0.0000   0.0000   0.0000   0.0000   0.0000   0.0000   0.0000   0.0000
     0.0000   0.0000   0.0000   0.0000   0.0000   0.0000   0.0000   0.0000
     0.0000   0.0000   0.0000   0.0000   0.0000   0.0000   0.0000   0.0000
     0.0000   0.0000   0.0000   0.0000   0.0000   0.0000   0.0000   0.0000
     0.0000   0.0000   0.0000   0.0000   0.0000   0.0000

          k = 0.2475 0.2475-0.1768 (  2930 PWs)   bands (ev):

    -6.8365  -0.2453   3.7271   4.2073   6.6231   9.6567   9.8021  11.9377
    13.9874  14.1146  15.2850  18.3246  21.3700  22.1190  22.5907  23.1567
    23.4527  25.9275  30.6581  30.9948  32.3544  32.9048  33.3383  34.0230
    35.3141  35.7355  37.2508  38.3302  38.8146  39.3993  40.2014  40.8914
    42.2891  42.6768  44.2035  45.1542  45.5086  45.5297  46.4608  48.4442
    48.7862  48.8675  50.0118  51.7438  53.5294  54.9149  55.0980  55.4535
    57.2092  57.7569  58.1870  59.7744  60.2810  60.4514  60.9369  61.8157
    62.3209  63.5265  64.1166  64.4178  64.6499  65.2415  65.7693  68.0854
    70.2358  70.4702  72.0588  73.0823  73.9596  74.4608

     occupation numbers 
     1.0000   1.0000   1.0000   1.0000   0.0000   0.0000   0.0000   0.0000
     0.0000   0.0000   0.0000   0.0000   0.0000   0.0000   0.0000   0.0000
     0.0000   0.0000   0.0000   0.0000   0.0000   0.0000   0.0000   0.0000
     0.0000   0.0000   0.0000   0.0000   0.0000   0.0000   0.0000   0.0000
     0.0000   0.0000   0.0000   0.0000   0.0000   0.0000   0.0000   0.0000
     0.0000   0.0000   0.0000   0.0000   0.0000   0.0000   0.0000   0.0000
     0.0000   0.0000   0.0000   0.0000   0.0000   0.0000   0.0000   0.0000
     0.0000   0.0000   0.0000   0.0000   0.0000   0.0000   0.0000   0.0000
     0.0000   0.0000   0.0000   0.0000   0.0000   0.0000

          k = 0.3182 0.3182-0.2475 (  2941 PWs)   bands (ev):

    -6.3382  -1.3950   3.5741   3.9336   6.4161   9.6639   9.6996  12.7703
    14.5068  15.4724  16.6379  18.1818  19.6444  20.2400  23.2607  24.9112
    26.0058  28.1543  29.6626  29.8186  30.7377  31.7463  31.9460  33.4665
    34.1865  34.9193  36.1720  37.2493  37.5956  39.1561  39.4363  40.0189
    41.5021  41.5076  44.6905  44.9092  45.8892  47.9930  48.1489  48.6429
    49.6470  50.6308  51.1889  52.6646  55.6104  55.6667  56.6774  57.0922
    57.6821  58.2436  59.2259  59.5395  60.2378  60.9206  61.6099  62.2565
    63.5010  64.0339  64.4884  65.1233  66.2054  66.3231  67.5723  67.8629
    69.3495  69.5869  70.4046  70.7174  70.9288  71.1734

     occupation numbers 
     1.0000   1.0000   1.0000   1.0000   0.0000   0.0000   0.0000   0.0000
     0.0000   0.0000   0.0000   0.0000   0.0000   0.0000   0.0000   0.0000
     0.0000   0.0000   0.0000   0.0000   0.0000   0.0000   0.0000   0.0000
     0.0000   0.0000   0.0000   0.0000   0.0000   0.0000   0.0000   0.0000
     0.0000   0.0000   0.0000   0.0000   0.0000   0.0000   0.0000   0.0000
     0.0000   0.0000   0.0000   0.0000   0.0000   0.0000   0.0000   0.0000
     0.0000   0.0000   0.0000   0.0000   0.0000   0.0000   0.0000   0.0000
     0.0000   0.0000   0.0000   0.0000   0.0000   0.0000   0.0000   0.0000
     0.0000   0.0000   0.0000   0.0000   0.0000   0.0000

          k =-0.3182-0.3182 0.3889 (  2934 PWs)   bands (ev):

    -6.1636  -1.7354   3.5948   3.7982   6.3660   9.5420   9.7602  12.8281
    15.0977  16.6403  17.0576  17.8212  18.3718  19.2219  24.6019  26.8391
    26.8878  27.5916  28.2692  29.0177  31.1743  31.6605  31.7064  32.6205
    33.5999  34.4460  36.3147  37.0725  37.1695  38.9020  39.2974  40.2423
    41.1451  41.2041  44.3166  45.3279  46.0067  47.5667  48.1886  48.9477
    50.6904  52.7541  53.4635  54.1169  54.3845  54.9596  55.4358  55.7351
    57.9021  58.0856  58.5334  59.8514  61.5174  62.1884  62.2333  63.1433
    63.2971  64.5959  65.0442  65.6315  65.6725  66.4678  66.4696  68.1545
    68.4581  69.1540  69.1968  69.9907  71.3843  71.8792

     occupation numbers 
     1.0000   1.0000   1.0000   1.0000   0.0000   0.0000   0.0000   0.0000
     0.0000   0.0000   0.0000   0.0000   0.0000   0.0000   0.0000   0.0000
     0.0000   0.0000   0.0000   0.0000   0.0000   0.0000   0.0000   0.0000
     0.0000   0.0000   0.0000   0.0000   0.0000   0.0000   0.0000   0.0000
     0.0000   0.0000   0.0000   0.0000   0.0000   0.0000   0.0000   0.0000
     0.0000   0.0000   0.0000   0.0000   0.0000   0.0000   0.0000   0.0000
     0.0000   0.0000   0.0000   0.0000   0.0000   0.0000   0.0000   0.0000
     0.0000   0.0000   0.0000   0.0000   0.0000   0.0000   0.0000   0.0000
     0.0000   0.0000   0.0000   0.0000   0.0000   0.0000

          k =-0.2475-0.2475 0.3182 (  2937 PWs)   bands (ev):

    -6.4874  -1.0818   3.7799   3.8240   6.4809   9.5208   9.9025  12.5723
    14.1121  15.2566  15.9794  18.6861  19.9384  21.1262  22.8403  24.0068
    24.9556  27.7333  30.0863  30.5669  31.1182  32.1105  32.2618  33.6444
    34.2397  35.8873  36.0259  37.6600  37.7442  39.2785  39.5743  39.9877
    41.6712  41.9226  44.1172  45.8301  46.2364  47.1695  47.4254  48.5550
    49.3133  49.3876  50.9188  52.9963  53.3795  55.6255  56.4794  57.7372
    57.8171  58.9650  59.0069  59.3006  60.5535  61.2718  61.3299  62.1664
    62.3968  62.4462  64.6212  65.3980  66.0737  66.3989  67.7309  67.8099
    68.8794  69.3510  70.1532  70.2712  72.2196  72.4040

     occupation numbers 
     1.0000   1.0000   1.0000   1.0000   0.0000   0.0000   0.0000   0.0000
     0.0000   0.0000   0.0000   0.0000   0.0000   0.0000   0.0000   0.0000
     0.0000   0.0000   0.0000   0.0000   0.0000   0.0000   0.0000   0.0000
     0.0000   0.0000   0.0000   0.0000   0.0000   0.0000   0.0000   0.0000
     0.0000   0.0000   0.0000   0.0000   0.0000   0.0000   0.0000   0.0000
     0.0000   0.0000   0.0000   0.0000   0.0000   0.0000   0.0000   0.0000
     0.0000   0.0000   0.0000   0.0000   0.0000   0.0000   0.0000   0.0000
     0.0000   0.0000   0.0000   0.0000   0.0000   0.0000   0.0000   0.0000
     0.0000   0.0000   0.0000   0.0000   0.0000   0.0000

          k =-0.1768-0.1768 0.2475 (  2931 PWs)   bands (ev):

    -7.0128   0.2498   4.0131   4.1010   6.7398   9.4369   9.9762  11.4489
    13.7330  14.3150  14.8182  17.7664  21.2731  22.1458  22.6423  22.9133
    24.1467  25.1747  30.5925  30.9199  32.5014  33.3424  33.6874  35.3019
    35.3810  36.4286  37.0336  38.9224  39.0678  40.2299  40.9566  41.1781
    42.3721  43.3168  43.3540  44.4138  44.4275  46.7852  46.7964  47.4116
    47.9958  49.0063  50.3111  51.5156  52.6865  53.4483  54.6801  55.5642
    55.7122  56.9226  58.0076  58.7148  58.9251  60.2177  61.0545  61.9493
    62.4543  63.1442  63.4082  63.8171  64.7335  65.2414  66.4156  69.8597
    70.1428  71.2967  72.3713  73.9304  74.7018  74.7635

     occupation numbers 
     1.0000   1.0000   1.0000   1.0000   0.0000   0.0000   0.0000   0.0000
     0.0000   0.0000   0.0000   0.0000   0.0000   0.0000   0.0000   0.0000
     0.0000   0.0000   0.0000   0.0000   0.0000   0.0000   0.0000   0.0000
     0.0000   0.0000   0.0000   0.0000   0.0000   0.0000   0.0000   0.0000
     0.0000   0.0000   0.0000   0.0000   0.0000   0.0000   0.0000   0.0000
     0.0000   0.0000   0.0000   0.0000   0.0000   0.0000   0.0000   0.0000
     0.0000   0.0000   0.0000   0.0000   0.0000   0.0000   0.0000   0.0000
     0.0000   0.0000   0.0000   0.0000   0.0000   0.0000   0.0000   0.0000
     0.0000   0.0000   0.0000   0.0000   0.0000   0.0000

          k =-0.1061-0.1061 0.1768 (  2913 PWs)   bands (ev):

    -7.4709   1.9323   4.3381   4.4885   7.0330   8.9932   9.7080  10.1556
    13.4641  14.3381  14.5541  16.2066  19.0522  19.8246  22.5254  25.3637
    25.3949  26.8271  30.3494  30.6387  32.1131  33.2819  34.9520  35.1843
    37.0185  38.7713  39.3579  39.5397  40.2335  40.7382  41.1099  42.3203
    42.9947  43.1861  44.1432  45.1328  45.2218  46.8135  46.8220  47.6381
    47.9115  48.4710  49.9302  50.5931  50.8657  51.8255  52.3569  52.7091
    53.8246  54.4840  55.3126  55.6716  56.7774  57.4000  58.0232  58.7107
    60.1136  61.3713  63.4235  65.5725  66.0552  67.5737  70.0048  71.2722
    71.8366  74.0685  75.3849  76.4557  77.2441  78.4818

     occupation numbers 
     1.0000   1.0000   1.0000   1.0000   0.0000   0.0000   0.0000   0.0000
     0.0000   0.0000   0.0000   0.0000   0.0000   0.0000   0.0000   0.0000
     0.0000   0.0000   0.0000   0.0000   0.0000   0.0000   0.0000   0.0000
     0.0000   0.0000   0.0000   0.0000   0.0000   0.0000   0.0000   0.0000
     0.0000   0.0000   0.0000   0.0000   0.0000   0.0000   0.0000   0.0000
     0.0000   0.0000   0.0000   0.0000   0.0000   0.0000   0.0000   0.0000
     0.0000   0.0000   0.0000   0.0000   0.0000   0.0000   0.0000   0.0000
     0.0000   0.0000   0.0000   0.0000   0.0000   0.0000   0.0000   0.0000
     0.0000   0.0000   0.0000   0.0000   0.0000   0.0000

          k =-0.0354-0.0354 0.1061 (  2913 PWs)   bands (ev):

    -7.7546   3.6971   4.7139   4.7821   6.8374   8.5710   9.1786   9.2010
    13.2564  14.1051  15.1027  16.5391  17.2257  17.8392  20.5915  27.9259
    28.0933  28.8756  30.8366  30.8435  31.7916  32.6331  33.4761  34.6185
    35.6208  36.5729  40.0978  41.9037  41.9413  42.4715  44.1040  44.2092
    44.6258  45.3454  45.3789  45.4679  46.3315  46.9836  47.3718  47.4429
    48.2812  48.6248  48.7041  49.7935  49.9057  50.1413  50.8604  51.5988
    51.7055  52.2395  52.5892  52.6323  53.4282  54.7875  55.9261  57.6770
    57.9497  60.1318  61.1130  66.5768  69.2554  70.0011  72.7321  72.8639
    74.4481  75.0866  75.8532  77.6600  77.7565  79.2596

     occupation numbers 
     1.0000   1.0000   1.0000   1.0000   0.0000   0.0000   0.0000   0.0000
     0.0000   0.0000   0.0000   0.0000   0.0000   0.0000   0.0000   0.0000
     0.0000   0.0000   0.0000   0.0000   0.0000   0.0000   0.0000   0.0000
     0.0000   0.0000   0.0000   0.0000   0.0000   0.0000   0.0000   0.0000
     0.0000   0.0000   0.0000   0.0000   0.0000   0.0000   0.0000   0.0000
     0.0000   0.0000   0.0000   0.0000   0.0000   0.0000   0.0000   0.0000
     0.0000   0.0000   0.0000   0.0000   0.0000   0.0000   0.0000   0.0000
     0.0000   0.0000   0.0000   0.0000   0.0000   0.0000   0.0000   0.0000
     0.0000   0.0000   0.0000   0.0000   0.0000   0.0000

          k = 0.1768 0.0354 0.0354 (  2919 PWs)   bands (ev):

    -7.6101   2.8721   4.3297   4.3723   7.5035   8.2314   9.7494   9.7985
    13.1220  14.0459  15.3193  16.8594  17.5413  18.4371  21.9628  26.5962
    26.6559  28.0611  29.4087  30.7319  31.8089  32.8761  34.4668  36.3083
    37.0118  38.4718  38.5201  40.1837  40.1871  41.4144  42.6144  43.1617
    43.6067  44.4933  44.6478  45.5620  45.7131  46.5941  47.5733  47.7806
    47.9933  49.2548  49.4902  49.6318  50.5646  51.3336  51.3440  51.7443
    52.1673  52.9275  53.8052  54.6119  54.8473  55.7033  57.6109  59.1843
    59.8402  60.6299  62.6816  63.8304  69.1089  69.7057  71.8111  72.0783
    73.7941  74.4758  75.3969  75.6611  77.5165  77.5886

     occupation numbers 
     1.0000   1.0000   1.0000   1.0000   0.0000   0.0000   0.0000   0.0000
     0.0000   0.0000   0.0000   0.0000   0.0000   0.0000   0.0000   0.0000
     0.0000   0.0000   0.0000   0.0000   0.0000   0.0000   0.0000   0.0000
     0.0000   0.0000   0.0000   0.0000   0.0000   0.0000   0.0000   0.0000
     0.0000   0.0000   0.0000   0.0000   0.0000   0.0000   0.0000   0.0000
     0.0000   0.0000   0.0000   0.0000   0.0000   0.0000   0.0000   0.0000
     0.0000   0.0000   0.0000   0.0000   0.0000   0.0000   0.0000   0.0000
     0.0000   0.0000   0.0000   0.0000   0.0000   0.0000   0.0000   0.0000
     0.0000   0.0000   0.0000   0.0000   0.0000   0.0000

          k = 0.2475 0.1061-0.0354 (  2921 PWs)   bands (ev):

    -7.3295   1.6573   3.6298   4.1768   7.7419   8.3897  10.2953  10.5043
    12.8430  15.0333  15.2532  17.1393  18.4176  20.1424  23.7545  24.0169
    25.2548  27.0891  28.7861  29.6530  31.7035  34.3481  35.3991  35.9482
    37.5216  37.7423  38.4420  39.2883  39.4549  40.4345  41.2310  41.5789
    42.1011  43.6234  43.9440  44.8446  45.7042  46.4961  47.1016  47.5557
    48.3616  48.9501  49.4925  50.1285  50.9923  52.0978  52.5792  53.6555
    54.2744  55.0259  55.6691  56.3706  57.7245  58.1722  59.4225  59.6726
    61.0936  61.7006  64.0311  66.0607  66.7557  68.1528  69.1380  70.9774
    72.3476  72.9938  73.7674  74.4201  75.7461  76.3225

     occupation numbers 
     1.0000   1.0000   1.0000   1.0000   0.0000   0.0000   0.0000   0.0000
     0.0000   0.0000   0.0000   0.0000   0.0000   0.0000   0.0000   0.0000
     0.0000   0.0000   0.0000   0.0000   0.0000   0.0000   0.0000   0.0000
     0.0000   0.0000   0.0000   0.0000   0.0000   0.0000   0.0000   0.0000
     0.0000   0.0000   0.0000   0.0000   0.0000   0.0000   0.0000   0.0000
     0.0000   0.0000   0.0000   0.0000   0.0000   0.0000   0.0000   0.0000
     0.0000   0.0000   0.0000   0.0000   0.0000   0.0000   0.0000   0.0000
     0.0000   0.0000   0.0000   0.0000   0.0000   0.0000   0.0000   0.0000
     0.0000   0.0000   0.0000   0.0000   0.0000   0.0000

          k = 0.3182 0.1768-0.1061 (  2932 PWs)   bands (ev):

    -6.8778   0.1897   3.1366   3.8348   7.5680   9.0309  10.5813  10.8656
    13.7131  15.1459  15.9354  17.9973  20.6316  21.3593  22.4853  22.9389
    25.3616  26.4247  28.5864  29.4629  32.0005  32.4338  34.7193  35.2499
    35.8662  37.2156  37.5097  37.6076  38.7151  39.2360  40.7707  40.9014
    42.7396  43.0626  43.2085  45.0958  45.6518  46.2442  47.2263  47.6057
    48.1741  49.7845  50.5755  51.6586  52.5340  52.9741  53.8607  55.3038
    55.9738  57.2228  57.9197  58.6130  59.5602  60.5287  61.3856  62.2273
    62.9450  63.8082  64.1611  65.3491  66.5674  67.2048  67.4939  68.4698
    69.1909  70.9215  71.6985  72.0771  73.5931  73.9745

     occupation numbers 
     1.0000   1.0000   1.0000   1.0000   0.0000   0.0000   0.0000   0.0000
     0.0000   0.0000   0.0000   0.0000   0.0000   0.0000   0.0000   0.0000
     0.0000   0.0000   0.0000   0.0000   0.0000   0.0000   0.0000   0.0000
     0.0000   0.0000   0.0000   0.0000   0.0000   0.0000   0.0000   0.0000
     0.0000   0.0000   0.0000   0.0000   0.0000   0.0000   0.0000   0.0000
     0.0000   0.0000   0.0000   0.0000   0.0000   0.0000   0.0000   0.0000
     0.0000   0.0000   0.0000   0.0000   0.0000   0.0000   0.0000   0.0000
     0.0000   0.0000   0.0000   0.0000   0.0000   0.0000   0.0000   0.0000
     0.0000   0.0000   0.0000   0.0000   0.0000   0.0000

          k = 0.3889 0.2475-0.1768 (  2941 PWs)   bands (ev):

    -6.3627  -1.0477   2.8088   3.5750   7.3608   9.2670  10.5288  11.8312
    14.5534  15.5557  17.0973  18.0462  19.6829  21.8096  23.1521  23.6886
    25.3914  28.2885  28.9340  29.5664  29.8426  31.5875  32.3357  33.7464
    34.5925  35.6575  36.2521  36.7709  37.9320  38.8690  39.7986  40.8651
    41.8386  42.5117  44.3443  45.1159  46.2505  46.6551  48.3328  48.9477
    50.0503  50.7255  51.7160  52.6328  53.2460  54.0828  55.1842  56.1114
    57.5770  58.3158  59.3096  60.0149  60.7878  61.4749  62.2576  63.0150
    63.3928  64.2539  64.8271  65.3879  66.0111  66.9344  67.3815  68.0665
    68.5762  69.4890  70.1214  70.6855  71.2958  72.7035

     occupation numbers 
     1.0000   1.0000   1.0000   1.0000   0.0000   0.0000   0.0000   0.0000
     0.0000   0.0000   0.0000   0.0000   0.0000   0.0000   0.0000   0.0000
     0.0000   0.0000   0.0000   0.0000   0.0000   0.0000   0.0000   0.0000
     0.0000   0.0000   0.0000   0.0000   0.0000   0.0000   0.0000   0.0000
     0.0000   0.0000   0.0000   0.0000   0.0000   0.0000   0.0000   0.0000
     0.0000   0.0000   0.0000   0.0000   0.0000   0.0000   0.0000   0.0000
     0.0000   0.0000   0.0000   0.0000   0.0000   0.0000   0.0000   0.0000
     0.0000   0.0000   0.0000   0.0000   0.0000   0.0000   0.0000   0.0000
     0.0000   0.0000   0.0000   0.0000   0.0000   0.0000

          k =-0.2475-0.3889 0.4596 (  2937 PWs)   bands (ev):

    -6.0479  -1.6637   2.6153   3.5301   7.2716   9.2746  10.3822  12.9850
    14.6681  16.0467  16.9099  17.8725  19.4166  20.8569  24.2884  25.9091
    26.4732  27.5664  28.6312  29.2307  30.0055  30.5307  32.0408  32.7790
    33.7582  34.0378  35.4022  36.0696  37.4465  39.1280  40.0753  41.1214
    41.5420  42.3115  43.7490  44.5951  46.1396  47.7964  48.8439  51.0874
    51.3807  51.7423  52.2902  53.2111  53.6184  54.6359  55.8463  56.6886
    57.3380  58.3216  59.4053  60.1633  60.5496  61.4924  62.1642  62.7602
    63.0722  63.5927  65.0294  65.6775  65.9571  66.3340  67.7702  68.8347
    69.3324  69.7342  70.1964  71.4680  72.0453  72.8809

     occupation numbers 
     1.0000   1.0000   1.0000   1.0000   0.0000   0.0000   0.0000   0.0000
     0.0000   0.0000   0.0000   0.0000   0.0000   0.0000   0.0000   0.0000
     0.0000   0.0000   0.0000   0.0000   0.0000   0.0000   0.0000   0.0000
     0.0000   0.0000   0.0000   0.0000   0.0000   0.0000   0.0000   0.0000
     0.0000   0.0000   0.0000   0.0000   0.0000   0.0000   0.0000   0.0000
     0.0000   0.0000   0.0000   0.0000   0.0000   0.0000   0.0000   0.0000
     0.0000   0.0000   0.0000   0.0000   0.0000   0.0000   0.0000   0.0000
     0.0000   0.0000   0.0000   0.0000   0.0000   0.0000   0.0000   0.0000
     0.0000   0.0000   0.0000   0.0000   0.0000   0.0000

          k =-0.1768-0.3182 0.3889 (  2941 PWs)   bands (ev):

    -6.2194  -1.3374   2.5803   3.7060   7.3301   9.3628  10.3067  12.5820
    14.5792  15.3040  16.8661  18.1479  20.0521  21.5048  22.8247  24.5743
    26.8006  28.0103  28.8044  29.4295  30.1538  30.5990  32.0586  32.9130
    34.2307  35.1590  35.8430  36.4470  37.7884  38.9773  40.1852  41.0476
    41.7331  42.2468  43.8288  44.7502  46.0291  47.4636  48.7090  49.0644
    49.9665  51.7293  52.2074  53.2252  53.9728  55.2588  56.1490  56.7735
    57.2506  58.0293  58.9226  59.5807  60.4087  61.1243  61.8561  62.1344
    63.3866  64.3566  65.0805  65.4151  66.1951  67.2207  67.3150  67.9577
    69.2629  69.8032  70.2715  70.7629  72.1140  72.7588

     occupation numbers 
     1.0000   1.0000   1.0000   1.0000   0.0000   0.0000   0.0000   0.0000
     0.0000   0.0000   0.0000   0.0000   0.0000   0.0000   0.0000   0.0000
     0.0000   0.0000   0.0000   0.0000   0.0000   0.0000   0.0000   0.0000
     0.0000   0.0000   0.0000   0.0000   0.0000   0.0000   0.0000   0.0000
     0.0000   0.0000   0.0000   0.0000   0.0000   0.0000   0.0000   0.0000
     0.0000   0.0000   0.0000   0.0000   0.0000   0.0000   0.0000   0.0000
     0.0000   0.0000   0.0000   0.0000   0.0000   0.0000   0.0000   0.0000
     0.0000   0.0000   0.0000   0.0000   0.0000   0.0000   0.0000   0.0000
     0.0000   0.0000   0.0000   0.0000   0.0000   0.0000

          k =-0.1061-0.2475 0.3182 (  2932 PWs)   bands (ev):

    -6.7073  -0.2615   2.7550   4.0418   7.5156   9.3938  10.2834  11.3007
    13.7050  14.9784  16.5457  18.1832  20.3952  21.3282  22.9929  24.0251
    24.4323  26.8801  28.5345  29.6516  31.7037  32.2127  33.4878  34.6305
    35.2142  36.4003  37.0351  37.9676  38.7471  39.1233  40.1420  41.5899
    41.7284  42.9769  43.8995  44.4994  45.4552  46.3603  46.5280  47.7194
    49.3473  50.3644  51.5566  52.4759  52.7887  54.1550  54.7619  55.7145
    56.9099  57.7220  58.1503  58.9641  60.0209  60.6421  61.1677  62.1421
    62.8506  63.8166  64.7841  65.3885  65.8427  66.6847  67.6729  68.4083
    69.1189  69.5237  71.2507  72.0570  73.4887  73.9856

     occupation numbers 
     1.0000   1.0000   1.0000   1.0000   0.0000   0.0000   0.0000   0.0000
     0.0000   0.0000   0.0000   0.0000   0.0000   0.0000   0.0000   0.0000
     0.0000   0.0000   0.0000   0.0000   0.0000   0.0000   0.0000   0.0000
     0.0000   0.0000   0.0000   0.0000   0.0000   0.0000   0.0000   0.0000
     0.0000   0.0000   0.0000   0.0000   0.0000   0.0000   0.0000   0.0000
     0.0000   0.0000   0.0000   0.0000   0.0000   0.0000   0.0000   0.0000
     0.0000   0.0000   0.0000   0.0000   0.0000   0.0000   0.0000   0.0000
     0.0000   0.0000   0.0000   0.0000   0.0000   0.0000   0.0000   0.0000
     0.0000   0.0000   0.0000   0.0000   0.0000   0.0000

          k =-0.0354-0.1768 0.2475 (  2922 PWs)   bands (ev):

    -7.1970   1.1354   3.2143   4.4214   7.7029   8.9029  10.0198  10.6398
    13.1150  14.7644  15.4724  17.3389  18.9145  21.5810  22.5062  24.2323
    25.3468  26.6176  28.4664  29.4239  31.8628  34.5450  34.9996  36.2902
    36.7988  36.9654  38.1766  38.6527  39.8668  40.0225  40.5890  42.1046
    42.3462  42.9390  43.5401  44.4102  45.2937  45.8214  46.4550  47.5473
    48.6320  49.5165  49.8460  51.1025  51.7731  52.7127  53.6055  54.3745
    54.7009  55.9232  56.4480  57.4024  58.4474  58.8827  60.0298  60.4326
    60.8196  61.8331  63.7452  65.5857  66.9653  67.8357  68.7774  70.4751
    70.5202  71.7775  73.0242  74.4247  74.6170  75.2621

     occupation numbers 
     1.0000   1.0000   1.0000   1.0000   0.0000   0.0000   0.0000   0.0000
     0.0000   0.0000   0.0000   0.0000   0.0000   0.0000   0.0000   0.0000
     0.0000   0.0000   0.0000   0.0000   0.0000   0.0000   0.0000   0.0000
     0.0000   0.0000   0.0000   0.0000   0.0000   0.0000   0.0000   0.0000
     0.0000   0.0000   0.0000   0.0000   0.0000   0.0000   0.0000   0.0000
     0.0000   0.0000   0.0000   0.0000   0.0000   0.0000   0.0000   0.0000
     0.0000   0.0000   0.0000   0.0000   0.0000   0.0000   0.0000   0.0000
     0.0000   0.0000   0.0000   0.0000   0.0000   0.0000   0.0000   0.0000
     0.0000   0.0000   0.0000   0.0000   0.0000   0.0000

          k = 0.0354-0.1061 0.1768 (  2916 PWs)   bands (ev):

    -7.5399   2.3894   4.0791   4.6343   7.3688   8.6013   9.5627  10.0934
    13.2996  14.2771  14.7555  16.6640  17.9215  19.4936  22.2434  25.3275
    26.6071  27.8366  29.6818  30.0735  31.7970  33.7298  34.5139  36.1109
    37.4836  37.9202  39.4396  39.7138  39.8618  41.1347  41.7053  42.3844
    43.4511  43.9458  44.4860  44.9616  46.0415  46.5085  47.0621  47.5430
    48.4332  48.8687  49.5309  50.0283  50.3175  51.2475  51.8586  52.8534
    53.2122  53.6073  54.9391  55.2915  55.8819  56.8718  57.0807  58.5979
    59.5669  61.8371  63.5270  64.1316  66.8496  69.2690  70.7723  71.9248
    73.3876  74.5600  74.7570  76.0489  76.5423  77.8647

     occupation numbers 
     1.0000   1.0000   1.0000   1.0000   0.0000   0.0000   0.0000   0.0000
     0.0000   0.0000   0.0000   0.0000   0.0000   0.0000   0.0000   0.0000
     0.0000   0.0000   0.0000   0.0000   0.0000   0.0000   0.0000   0.0000
     0.0000   0.0000   0.0000   0.0000   0.0000   0.0000   0.0000   0.0000
     0.0000   0.0000   0.0000   0.0000   0.0000   0.0000   0.0000   0.0000
     0.0000   0.0000   0.0000   0.0000   0.0000   0.0000   0.0000   0.0000
     0.0000   0.0000   0.0000   0.0000   0.0000   0.0000   0.0000   0.0000
     0.0000   0.0000   0.0000   0.0000   0.0000   0.0000   0.0000   0.0000
     0.0000   0.0000   0.0000   0.0000   0.0000   0.0000

          k = 0.3182 0.0354 0.0354 (  2911 PWs)   bands (ev):

    -7.1193   1.2093   3.4473   3.4843   7.2210   8.4843  11.0829  11.2305
    12.5738  15.9923  16.0392  18.0722  18.6857  19.6497  23.7853  23.8262
    25.5088  26.1416  26.5044  31.1147  32.2324  33.4101  34.3316  36.0346
    36.0555  36.3842  37.8476  39.9090  39.9599  40.8745  41.6283  42.2375
    42.2897  43.2613  43.8605  44.7265  44.7527  46.0180  46.5293  47.3283
    48.0877  49.1536  50.0486  50.8073  51.6788  52.2170  53.2538  53.5929
    54.1943  55.5013  56.2287  56.8324  58.4907  59.9139  60.0078  61.3074
    63.4503  64.6787  65.1148  66.5450  66.7959  67.3729  69.8941  70.5585
    71.0504  72.5949  73.0277  73.7363  74.3808  74.8625

     occupation numbers 
     1.0000   1.0000   1.0000   1.0000   0.0000   0.0000   0.0000   0.0000
     0.0000   0.0000   0.0000   0.0000   0.0000   0.0000   0.0000   0.0000
     0.0000   0.0000   0.0000   0.0000   0.0000   0.0000   0.0000   0.0000
     0.0000   0.0000   0.0000   0.0000   0.0000   0.0000   0.0000   0.0000
     0.0000   0.0000   0.0000   0.0000   0.0000   0.0000   0.0000   0.0000
     0.0000   0.0000   0.0000   0.0000   0.0000   0.0000   0.0000   0.0000
     0.0000   0.0000   0.0000   0.0000   0.0000   0.0000   0.0000   0.0000
     0.0000   0.0000   0.0000   0.0000   0.0000   0.0000   0.0000   0.0000
     0.0000   0.0000   0.0000   0.0000   0.0000   0.0000

          k = 0.3889 0.1061-0.0354 (  2927 PWs)   bands (ev):

    -6.7306   0.2238   2.7954   3.2231   7.2888   8.4472  11.0472  11.9448
    13.7062  16.4747  16.8893  18.5405  19.9508  21.3355  21.6057  22.6137
    25.0525  26.3189  27.7445  30.1205  31.7235  32.1003  33.4230  34.8022
    35.0314  36.1926  37.5077  38.0376  39.4276  40.5822  41.4292  42.0446
    42.6583  42.9113  44.1680  44.8431  45.3687  46.3382  46.4851  47.8317
    48.6785  49.6309  50.5620  51.0095  51.6466  52.1306  53.8795  54.5345
    55.8129  57.0849  58.1051  59.3136  59.7028  60.8134  62.7427  63.3865
    64.4595  65.1791  65.4645  66.9764  67.5590  67.8213  68.7617  69.3346
    69.9561  70.6079  71.1105  71.2243  72.6762  73.2622

     occupation numbers 
     1.0000   1.0000   1.0000   1.0000   0.0000   0.0000   0.0000   0.0000
     0.0000   0.0000   0.0000   0.0000   0.0000   0.0000   0.0000   0.0000
     0.0000   0.0000   0.0000   0.0000   0.0000   0.0000   0.0000   0.0000
     0.0000   0.0000   0.0000   0.0000   0.0000   0.0000   0.0000   0.0000
     0.0000   0.0000   0.0000   0.0000   0.0000   0.0000   0.0000   0.0000
     0.0000   0.0000   0.0000   0.0000   0.0000   0.0000   0.0000   0.0000
     0.0000   0.0000   0.0000   0.0000   0.0000   0.0000   0.0000   0.0000
     0.0000   0.0000   0.0000   0.0000   0.0000   0.0000   0.0000   0.0000
     0.0000   0.0000   0.0000   0.0000   0.0000   0.0000

          k = 0.4596 0.1768-0.1061 (  2944 PWs)   bands (ev):

    -6.2427  -0.8122   2.1595   3.0058   7.4309   9.1918  10.7523  12.0579
    15.1062  16.8485  17.6511  18.3426  19.7964  21.2990  22.4931  24.2849
    24.8391  26.4651  28.0715  28.6906  30.5855  31.5854  32.3513  33.1541
    34.0429  35.9180  36.3339  36.9328  38.6750  39.2589  40.1885  41.3889
    42.0120  42.8582  44.6280  45.4097  46.8936  47.8502  48.5843  49.0872
    49.5910  50.1731  51.0800  51.5974  51.8070  52.7096  54.3210  55.3291
    57.6940  58.3948  58.9644  60.4211  61.8324  62.8772  63.3408  63.8311
    64.5304  64.8956  65.2658  65.9733  66.3771  67.0736  67.5880  68.5526
    68.9796  69.3996  69.9451  71.2858  71.7933  72.8478

     occupation numbers 
     1.0000   1.0000   1.0000   1.0000   0.0000   0.0000   0.0000   0.0000
     0.0000   0.0000   0.0000   0.0000   0.0000   0.0000   0.0000   0.0000
     0.0000   0.0000   0.0000   0.0000   0.0000   0.0000   0.0000   0.0000
     0.0000   0.0000   0.0000   0.0000   0.0000   0.0000   0.0000   0.0000
     0.0000   0.0000   0.0000   0.0000   0.0000   0.0000   0.0000   0.0000
     0.0000   0.0000   0.0000   0.0000   0.0000   0.0000   0.0000   0.0000
     0.0000   0.0000   0.0000   0.0000   0.0000   0.0000   0.0000   0.0000
     0.0000   0.0000   0.0000   0.0000   0.0000   0.0000   0.0000   0.0000
     0.0000   0.0000   0.0000   0.0000   0.0000   0.0000

          k =-0.1768-0.4596 0.5303 (  2943 PWs)   bands (ev):

    -5.8567  -1.5005   1.6694   3.0189   7.4807   9.9067  11.2122  11.9668
    14.7227  16.8588  17.4427  18.1353  19.9488  23.0113  23.7286  24.8390
    25.5132  26.5077  27.3179  28.7277  29.6017  30.7254  32.0555  32.6418
    33.2692  33.9803  35.8387  36.1719  37.2141  38.2023  40.4707  41.5689
    42.0850  43.2409  44.2760  46.0527  47.3574  48.1916  48.8980  49.2548
    50.8559  51.1507  52.0639  53.2165  53.7670  54.8659  55.3238  56.0436
    57.7293  58.0813  58.4791  59.8571  60.4355  61.7014  62.3491  63.0994
    63.6952  64.8286  64.9595  66.3833  66.5520  67.3811  67.9970  68.3342
    69.0450  70.3880  70.8492  71.2674  72.4087  72.9868

     occupation numbers 
     1.0000   1.0000   1.0000   1.0000   0.0000   0.0000   0.0000   0.0000
     0.0000   0.0000   0.0000   0.0000   0.0000   0.0000   0.0000   0.0000
     0.0000   0.0000   0.0000   0.0000   0.0000   0.0000   0.0000   0.0000
     0.0000   0.0000   0.0000   0.0000   0.0000   0.0000   0.0000   0.0000
     0.0000   0.0000   0.0000   0.0000   0.0000   0.0000   0.0000   0.0000
     0.0000   0.0000   0.0000   0.0000   0.0000   0.0000   0.0000   0.0000
     0.0000   0.0000   0.0000   0.0000   0.0000   0.0000   0.0000   0.0000
     0.0000   0.0000   0.0000   0.0000   0.0000   0.0000   0.0000   0.0000
     0.0000   0.0000   0.0000   0.0000   0.0000   0.0000

          k =-0.1061-0.3889 0.4596 (  2946 PWs)   bands (ev):

    -5.8720  -1.4662   1.4448   3.2556   7.6736   9.9398  11.3112  12.5783
    13.7566  15.1875  17.3573  19.3764  21.5284  21.8626  22.6204  25.5569
    26.2425  27.1078  27.9089  28.6597  29.5384  30.5129  31.5548  32.2183
    32.7680  33.3847  35.9220  36.5772  37.8612  38.3909  40.0285  41.7437
    42.1651  43.2669  44.0381  45.3268  47.1376  47.5327  48.8694  49.2950
    50.8815  51.7740  53.2290  54.0106  54.6305  55.4734  55.8925  56.3279
    57.1346  58.1222  58.9595  59.3636  60.1545  60.6665  60.9172  61.7804
    63.0437  63.8835  64.4024  66.1937  66.4246  67.3459  68.2747  68.8013
    69.6840  70.6934  71.4106  72.7057  73.0020  73.8260

     occupation numbers 
     1.0000   1.0000   1.0000   1.0000   0.0000   0.0000   0.0000   0.0000
     0.0000   0.0000   0.0000   0.0000   0.0000   0.0000   0.0000   0.0000
     0.0000   0.0000   0.0000   0.0000   0.0000   0.0000   0.0000   0.0000
     0.0000   0.0000   0.0000   0.0000   0.0000   0.0000   0.0000   0.0000
     0.0000   0.0000   0.0000   0.0000   0.0000   0.0000   0.0000   0.0000
     0.0000   0.0000   0.0000   0.0000   0.0000   0.0000   0.0000   0.0000
     0.0000   0.0000   0.0000   0.0000   0.0000   0.0000   0.0000   0.0000
     0.0000   0.0000   0.0000   0.0000   0.0000   0.0000   0.0000   0.0000
     0.0000   0.0000   0.0000   0.0000   0.0000   0.0000

          k =-0.0354-0.3182 0.3889 (  2939 PWs)   bands (ev):

    -6.2718  -0.7776   1.6071   3.6541   7.9594   9.9566  10.6513  11.5053
    13.6569  15.5111  17.6890  18.6177  19.6584  22.5556  23.2722  24.2276
    25.8536  26.8608  27.9693  29.2506  30.0931  31.3723  32.0634  32.5384
    33.4735  35.5305  36.1886  37.2975  39.1243  39.6943  40.3852  41.2232
    42.4717  42.9064  43.3912  43.8667  44.8851  47.6613  48.1568  49.4702
    50.4229  51.5766  52.0074  52.8799  53.9767  54.6685  55.5956  56.8368
    57.1414  57.8821  58.2595  59.0416  59.9325  60.8405  61.3595  62.2392
    63.2207  63.9872  64.5681  65.8222  66.1143  67.4339  68.2202  68.7955
    68.9900  70.1763  70.6090  72.1906  73.2159  73.7096

     occupation numbers 
     1.0000   1.0000   1.0000   1.0000   0.0000   0.0000   0.0000   0.0000
     0.0000   0.0000   0.0000   0.0000   0.0000   0.0000   0.0000   0.0000
     0.0000   0.0000   0.0000   0.0000   0.0000   0.0000   0.0000   0.0000
     0.0000   0.0000   0.0000   0.0000   0.0000   0.0000   0.0000   0.0000
     0.0000   0.0000   0.0000   0.0000   0.0000   0.0000   0.0000   0.0000
     0.0000   0.0000   0.0000   0.0000   0.0000   0.0000   0.0000   0.0000
     0.0000   0.0000   0.0000   0.0000   0.0000   0.0000   0.0000   0.0000
     0.0000   0.0000   0.0000   0.0000   0.0000   0.0000   0.0000   0.0000
     0.0000   0.0000   0.0000   0.0000   0.0000   0.0000

          k = 0.0354-0.2475 0.3182 (  2926 PWs)   bands (ev):

    -6.7555   0.0598   2.3459   4.0842   7.9546   9.3765  10.4337  10.7829
    13.2659  15.6424  16.6044  18.1605  19.7704  20.8588  23.6801  24.2123
    25.3457  26.6145  27.4554  28.8002  32.0785  32.4216  34.0475  34.3748
    35.1655  36.0757  37.7808  38.5113  39.3420  40.0731  40.3064  41.2591
    41.8372  42.3808  43.3065  44.2650  44.7455  46.6617  47.0136  48.2781
    49.2480  50.2357  50.8353  52.0777  53.1432  54.4904  54.9880  55.8125
    56.1851  56.8854  57.6516  58.4630  59.2473  60.5726  60.6999  62.0448
    63.1792  64.2687  64.5695  65.5642  65.9764  66.9149  67.7435  69.3042
    70.0480  70.9107  71.4803  72.1915  72.5600  73.0411

     occupation numbers 
     1.0000   1.0000   1.0000   1.0000   0.0000   0.0000   0.0000   0.0000
     0.0000   0.0000   0.0000   0.0000   0.0000   0.0000   0.0000   0.0000
     0.0000   0.0000   0.0000   0.0000   0.0000   0.0000   0.0000   0.0000
     0.0000   0.0000   0.0000   0.0000   0.0000   0.0000   0.0000   0.0000
     0.0000   0.0000   0.0000   0.0000   0.0000   0.0000   0.0000   0.0000
     0.0000   0.0000   0.0000   0.0000   0.0000   0.0000   0.0000   0.0000
     0.0000   0.0000   0.0000   0.0000   0.0000   0.0000   0.0000   0.0000
     0.0000   0.0000   0.0000   0.0000   0.0000   0.0000   0.0000   0.0000
     0.0000   0.0000   0.0000   0.0000   0.0000   0.0000

          k = 0.1061-0.1768 0.2475 (  2922 PWs)   bands (ev):

    -7.1348   0.7532   3.6109   4.2957   7.2087   9.1896  10.0562  10.9116
    13.3875  14.4745  15.2169  17.2747  20.0868  21.7361  22.5857  23.9962
    24.5779  25.6466  29.5673  30.2408  32.1266  33.9904  34.3483  36.0409
    36.4225  36.8897  37.5764  38.5311  39.3206  40.1373  41.3360  41.9498
    42.6457  42.8320  43.6033  44.0570  45.0477  45.3203  46.7263  47.6224
    48.3824  49.8606  50.2675  51.0789  51.8476  52.7395  53.5850  54.5457
    55.7902  56.4862  57.0548  57.6992  58.8984  59.3661  60.2602  60.5941
    61.6508  62.5111  63.5391  64.6843  65.5772  67.5673  68.4694  69.4751
    70.0232  71.0312  73.0468  74.2383  75.3690  75.9095

     occupation numbers 
     1.0000   1.0000   1.0000   1.0000   0.0000   0.0000   0.0000   0.0000
     0.0000   0.0000   0.0000   0.0000   0.0000   0.0000   0.0000   0.0000
     0.0000   0.0000   0.0000   0.0000   0.0000   0.0000   0.0000   0.0000
     0.0000   0.0000   0.0000   0.0000   0.0000   0.0000   0.0000   0.0000
     0.0000   0.0000   0.0000   0.0000   0.0000   0.0000   0.0000   0.0000
     0.0000   0.0000   0.0000   0.0000   0.0000   0.0000   0.0000   0.0000
     0.0000   0.0000   0.0000   0.0000   0.0000   0.0000   0.0000   0.0000
     0.0000   0.0000   0.0000   0.0000   0.0000   0.0000   0.0000   0.0000
     0.0000   0.0000   0.0000   0.0000   0.0000   0.0000

          k = 0.4596 0.0354 0.0354 (  2929 PWs)   bands (ev):

    -6.4139  -0.3410   2.7049   2.7994   6.6485   7.7791  12.5791  12.8778
    13.9873  17.0727  17.9871  19.9493  20.5174  21.2160  21.2236  21.5471
    23.9430  24.2478  29.5997  30.4773  31.5698  31.6086  32.3997  33.2318
    33.2836  34.5362  37.5657  38.8058  39.8237  40.8826  41.6561  43.0837
    43.4279  43.5788  44.7211  44.7716  45.3718  45.5393  46.6184  46.9055
    47.6958  47.9641  48.9372  52.2999  53.6807  54.0106  55.2587  55.6546
    56.5969  56.7222  58.4914  58.7101  61.5652  62.0165  62.6718  64.3099
    64.6685  65.5062  66.4364  67.8162  68.2597  69.0247  69.2281  69.8009
    70.6866  70.8544  70.9351  71.3013  71.7108  72.0978

     occupation numbers 
     1.0000   1.0000   1.0000   1.0000   0.0000   0.0000   0.0000   0.0000
     0.0000   0.0000   0.0000   0.0000   0.0000   0.0000   0.0000   0.0000
     0.0000   0.0000   0.0000   0.0000   0.0000   0.0000   0.0000   0.0000
     0.0000   0.0000   0.0000   0.0000   0.0000   0.0000   0.0000   0.0000
     0.0000   0.0000   0.0000   0.0000   0.0000   0.0000   0.0000   0.0000
     0.0000   0.0000   0.0000   0.0000   0.0000   0.0000   0.0000   0.0000
     0.0000   0.0000   0.0000   0.0000   0.0000   0.0000   0.0000   0.0000
     0.0000   0.0000   0.0000   0.0000   0.0000   0.0000   0.0000   0.0000
     0.0000   0.0000   0.0000   0.0000   0.0000   0.0000

          k = 0.5303 0.1061-0.0354 (  2939 PWs)   bands (ev):

    -5.9934  -1.0613   2.1931   2.5470   6.8567   7.7082  12.4877  13.6298
    15.1933  17.9015  18.0412  19.5636  20.2908  20.8190  22.0764  23.2717
    23.7566  24.5076  27.8836  29.1437  30.4354  31.0027  31.6573  32.7736
    33.3232  35.8283  36.5330  38.0283  39.3697  39.7371  41.1685  41.5397
    42.6907  43.9272  44.7808  45.0519  46.0420  46.5393  46.9997  47.6179
    48.7087  49.7341  51.0324  52.2283  53.0774  54.2418  55.1992  57.1997
    57.7761  58.4654  59.3973  60.5826  61.1881  62.7034  63.0473  63.3649
    64.0239  64.6125  65.7758  66.1929  67.5029  68.5250  68.7291  69.0217
    70.1428  70.7524  71.2581  71.7510  72.1284  72.8348

     occupation numbers 
     1.0000   1.0000   1.0000   1.0000   0.0000   0.0000   0.0000   0.0000
     0.0000   0.0000   0.0000   0.0000   0.0000   0.0000   0.0000   0.0000
     0.0000   0.0000   0.0000   0.0000   0.0000   0.0000   0.0000   0.0000
     0.0000   0.0000   0.0000   0.0000   0.0000   0.0000   0.0000   0.0000
     0.0000   0.0000   0.0000   0.0000   0.0000   0.0000   0.0000   0.0000
     0.0000   0.0000   0.0000   0.0000   0.0000   0.0000   0.0000   0.0000
     0.0000   0.0000   0.0000   0.0000   0.0000   0.0000   0.0000   0.0000
     0.0000   0.0000   0.0000   0.0000   0.0000   0.0000   0.0000   0.0000
     0.0000   0.0000   0.0000   0.0000   0.0000   0.0000

          k =-0.1061-0.5303 0.6010 (  2937 PWs)   bands (ev):

    -5.6279  -1.5694   1.4391   2.5493   7.0400   8.8715  12.1449  13.4342
    15.0600  17.1855  18.2329  19.4795  20.3013  22.2219  23.6286  24.0972
    24.7477  25.3172  26.8093  27.9560  28.9908  29.6089  31.3973  32.8021
    33.4042  35.2077  35.9435  37.5835  38.1300  38.7716  40.0239  41.0358
    42.6945  43.4189  44.0709  45.8724  47.0263  47.3695  48.2753  49.9649
    50.9881  51.5545  52.3675  53.3227  53.4897  54.1815  55.0548  55.7461
    57.6173  58.2336  58.9864  59.9233  61.3562  61.7046  62.6775  63.2188
    64.2415  64.4637  65.6888  66.3537  67.3408  67.9772  68.2675  69.1269
    69.5497  70.3993  70.8786  71.9479  72.3412  72.6966

     occupation numbers 
     1.0000   1.0000   1.0000   1.0000   0.0000   0.0000   0.0000   0.0000
     0.0000   0.0000   0.0000   0.0000   0.0000   0.0000   0.0000   0.0000
     0.0000   0.0000   0.0000   0.0000   0.0000   0.0000   0.0000   0.0000
     0.0000   0.0000   0.0000   0.0000   0.0000   0.0000   0.0000   0.0000
     0.0000   0.0000   0.0000   0.0000   0.0000   0.0000   0.0000   0.0000
     0.0000   0.0000   0.0000   0.0000   0.0000   0.0000   0.0000   0.0000
     0.0000   0.0000   0.0000   0.0000   0.0000   0.0000   0.0000   0.0000
     0.0000   0.0000   0.0000   0.0000   0.0000   0.0000   0.0000   0.0000
     0.0000   0.0000   0.0000   0.0000   0.0000   0.0000

          k =-0.0354-0.4596 0.5303 (  2939 PWs)   bands (ev):

    -5.5599  -1.6255   0.9643   2.7844   7.2816  10.4778  11.9483  12.6972
    13.5957  15.4645  19.1658  19.9494  21.5836  21.9689  23.3153  24.2224
    25.7168  26.6925  27.4064  28.0092  28.7547  29.4285  31.1270  32.1792
    32.6842  33.7135  35.3522  36.8198  38.2656  39.1068  39.4399  41.5117
    42.0215  42.9681  44.6716  45.9463  47.2487  48.4500  49.4877  50.5312
    51.4416  51.6319  53.1018  53.6931  54.5389  54.8827  55.5552  56.0010
    56.8681  57.6386  58.2666  59.3165  60.2255  60.9704  61.2681  63.0952
    63.6442  64.1398  65.3363  66.0721  66.7632  67.1970  68.3582  68.8672
    69.7432  71.0352  71.9267  72.2336  73.6215  74.1794

     occupation numbers 
     1.0000   1.0000   1.0000   1.0000   0.0000   0.0000   0.0000   0.0000
     0.0000   0.0000   0.0000   0.0000   0.0000   0.0000   0.0000   0.0000
     0.0000   0.0000   0.0000   0.0000   0.0000   0.0000   0.0000   0.0000
     0.0000   0.0000   0.0000   0.0000   0.0000   0.0000   0.0000   0.0000
     0.0000   0.0000   0.0000   0.0000   0.0000   0.0000   0.0000   0.0000
     0.0000   0.0000   0.0000   0.0000   0.0000   0.0000   0.0000   0.0000
     0.0000   0.0000   0.0000   0.0000   0.0000   0.0000   0.0000   0.0000
     0.0000   0.0000   0.0000   0.0000   0.0000   0.0000   0.0000   0.0000
     0.0000   0.0000   0.0000   0.0000   0.0000   0.0000

          k = 0.0354-0.3889 0.4596 (  2946 PWs)   bands (ev):

    -5.8390  -1.3346   1.1047   3.1987   7.6665  10.6107  11.2516  12.4517
    13.5082  14.5966  18.4811  19.4890  20.9276  22.4667  23.1846  24.9645
    25.4173  27.3253  27.9225  29.1415  29.3032  29.8079  31.0236  32.3820
    32.9983  33.6102  34.9411  36.6104  38.6570  39.2021  39.8937  41.8494
    42.3236  43.1488  43.7071  45.1127  46.6705  47.4993  49.1711  50.7448
    51.1066  52.1076  52.8801  53.2616  54.4347  54.5905  55.9574  56.0921
    57.3234  58.4823  58.9795  59.4543  60.3278  60.6271  61.4447  62.4595
    62.8370  63.3425  64.0443  64.9259  65.5943  66.8079  68.0224  69.7930
    70.7414  71.3030  72.4122  73.3745  73.6526  73.8833

     occupation numbers 
     1.0000   1.0000   1.0000   1.0000   0.0000   0.0000   0.0000   0.0000
     0.0000   0.0000   0.0000   0.0000   0.0000   0.0000   0.0000   0.0000
     0.0000   0.0000   0.0000   0.0000   0.0000   0.0000   0.0000   0.0000
     0.0000   0.0000   0.0000   0.0000   0.0000   0.0000   0.0000   0.0000
     0.0000   0.0000   0.0000   0.0000   0.0000   0.0000   0.0000   0.0000
     0.0000   0.0000   0.0000   0.0000   0.0000   0.0000   0.0000   0.0000
     0.0000   0.0000   0.0000   0.0000   0.0000   0.0000   0.0000   0.0000
     0.0000   0.0000   0.0000   0.0000   0.0000   0.0000   0.0000   0.0000
     0.0000   0.0000   0.0000   0.0000   0.0000   0.0000

          k = 0.1061-0.3182 0.3889 (  2942 PWs)   bands (ev):

    -6.2521  -1.0240   1.9963   3.6733   7.7644   9.5216  10.6641  11.8997
    14.1677  15.3175  17.0802  18.4548  20.5121  21.8438  23.0501  23.8981
    26.4460  27.5551  28.5776  28.9329  30.0321  30.8615  32.4451  32.8355
    33.8388  34.7450  35.9135  38.0017  38.3485  39.4567  39.9932  40.7953
    41.6427  42.3622  44.3188  45.5976  46.0133  46.6296  47.5064  48.4868
    50.5477  51.8842  52.4101  53.7193  54.3903  54.5759  55.4030  56.2348
    57.3101  57.7877  58.3541  59.5207  60.1488  61.0772  61.5198  62.5665
    63.0752  64.0902  64.5138  65.7198  66.2563  67.7741  68.0011  68.4666
    68.9175  69.9261  70.7775  71.3503  72.0160  72.5186

     occupation numbers 
     1.0000   1.0000   1.0000   1.0000   0.0000   0.0000   0.0000   0.0000
     0.0000   0.0000   0.0000   0.0000   0.0000   0.0000   0.0000   0.0000
     0.0000   0.0000   0.0000   0.0000   0.0000   0.0000   0.0000   0.0000
     0.0000   0.0000   0.0000   0.0000   0.0000   0.0000   0.0000   0.0000
[...]
     0.0000   0.0000   0.0000   0.0000   0.0000   0.0000   0.0000   0.0000
     0.0000   0.0000   0.0000   0.0000   0.0000   0.0000   0.0000   0.0000
     0.0000   0.0000   0.0000   0.0000   0.0000   0.0000   0.0000   0.0000
     0.0000   0.0000   0.0000   0.0000   0.0000   0.0000   0.0000   0.0000
     0.0000   0.0000   0.0000   0.0000   0.0000   0.0000

          k =-0.7425 0.2475 0.1061 (  2945 PWs)   bands (ev):

    -5.4698  -1.7004   1.1117   2.3359   7.6082   9.7061  11.8018  12.6508
    14.6832  16.5385  18.7407  20.0172  21.4303  22.1717  23.4095  24.1575
    24.7850  25.9110  27.2573  28.1856  29.1786  29.5773  30.6157  31.8103
    32.7189  33.9017  36.0698  37.5138  37.6798  38.1951  39.4021  41.3444
    43.0038  44.0146  44.9526  45.3795  46.7375  48.5117  49.0045  50.8077
    51.5886  52.0843  52.5981  53.3209  54.2789  54.6782  55.3831  55.9035
    56.3532  57.5694  58.6225  59.4122  61.2058  61.4589  62.1465  62.8870
    63.7580  64.7391  64.8921  65.5434  66.6787  68.2847  69.0067  69.2494
    70.1953  70.7041  71.3517  71.7844  72.5370  72.9478

     occupation numbers 
     1.0000   1.0000   1.0000   1.0000   0.0000   0.0000   0.0000   0.0000
     0.0000   0.0000   0.0000   0.0000   0.0000   0.0000   0.0000   0.0000
     0.0000   0.0000   0.0000   0.0000   0.0000   0.0000   0.0000   0.0000
     0.0000   0.0000   0.0000   0.0000   0.0000   0.0000   0.0000   0.0000
     0.0000   0.0000   0.0000   0.0000   0.0000   0.0000   0.0000   0.0000
     0.0000   0.0000   0.0000   0.0000   0.0000   0.0000   0.0000   0.0000
     0.0000   0.0000   0.0000   0.0000   0.0000   0.0000   0.0000   0.0000
     0.0000   0.0000   0.0000   0.0000   0.0000   0.0000   0.0000   0.0000
     0.0000   0.0000   0.0000   0.0000   0.0000   0.0000

          k =-0.6718 0.1768 0.1768 (  2938 PWs)   bands (ev):

    -5.4973  -1.7071   1.0500   2.7197   6.9164   9.6616  12.8425  13.0741
    13.9811  15.7710  19.1403  20.3819  21.2942  22.0931  23.2941  23.4111
    25.7322  26.3078  27.2846  27.6873  28.1313  29.4988  30.5634  31.8695
    33.2874  34.9348  36.1259  36.7495  38.9165  38.9823  40.4815  41.2079
    41.2805  41.5755  44.2084  46.8446  47.8734  48.6696  48.7896  49.5896
    50.5462  53.0461  53.0469  53.4717  54.1809  55.2940  55.6381  56.1691
    57.1571  57.4145  58.3129  59.0897  59.2469  60.7074  61.6879  62.5394
    65.1634  65.7275  66.1375  67.1451  67.2446  68.0905  68.2043  68.3034
    69.4309  70.0544  70.7388  71.5974  72.5102  73.4755

     occupation numbers 
     1.0000   1.0000   1.0000   1.0000   0.0000   0.0000   0.0000   0.0000
     0.0000   0.0000   0.0000   0.0000   0.0000   0.0000   0.0000   0.0000
     0.0000   0.0000   0.0000   0.0000   0.0000   0.0000   0.0000   0.0000
     0.0000   0.0000   0.0000   0.0000   0.0000   0.0000   0.0000   0.0000
     0.0000   0.0000   0.0000   0.0000   0.0000   0.0000   0.0000   0.0000
     0.0000   0.0000   0.0000   0.0000   0.0000   0.0000   0.0000   0.0000
     0.0000   0.0000   0.0000   0.0000   0.0000   0.0000   0.0000   0.0000
     0.0000   0.0000   0.0000   0.0000   0.0000   0.0000   0.0000   0.0000
     0.0000   0.0000   0.0000   0.0000   0.0000   0.0000

          k = 0.2475 0.2475 0.2475 (  2929 PWs)   bands (ev):

    -6.6796  -0.6989   4.0293   4.0293   6.2797   9.7214   9.7214  12.4458
    13.8957  14.9793  14.9793  18.7554  21.2711  21.2711  22.6223  23.6232
    23.6232  26.6533  31.3173  31.3173  31.3326  32.9596  32.9596  33.9996
    33.9996  34.8104  36.7018  38.9553  39.0679  39.0679  40.0327  40.0327
    41.1405  41.3195  45.6121  45.6121  46.6949  46.9466  46.9466  47.7872
    47.7872  47.9650  50.5006  53.4942  53.4942  54.3802  56.4114  56.4114
    58.1140  59.1076  59.1076  59.8983  59.8983  60.5054  61.4192  62.1972
    62.2813  62.2813  63.8479  63.8479  65.8555  66.3615  66.3615  68.0640
    68.0640  69.9327  71.8453  71.8453  73.1658  73.2673

     occupation numbers 
     1.0000   1.0000   1.0000   1.0000   0.0000   0.0000   0.0000   0.0000
     0.0000   0.0000   0.0000   0.0000   0.0000   0.0000   0.0000   0.0000
     0.0000   0.0000   0.0000   0.0000   0.0000   0.0000   0.0000   0.0000
     0.0000   0.0000   0.0000   0.0000   0.0000   0.0000   0.0000   0.0000
     0.0000   0.0000   0.0000   0.0000   0.0000   0.0000   0.0000   0.0000
     0.0000   0.0000   0.0000   0.0000   0.0000   0.0000   0.0000   0.0000
     0.0000   0.0000   0.0000   0.0000   0.0000   0.0000   0.0000   0.0000
     0.0000   0.0000   0.0000   0.0000   0.0000   0.0000   0.0000   0.0000
     0.0000   0.0000   0.0000   0.0000   0.0000   0.0000

          k = 0.3182 0.3182 0.1768 (  2934 PWs)   bands (ev):

    -6.4262  -1.0564   2.9741   3.9713   6.9993   9.6403   9.8735  12.4858
    14.5086  14.5147  16.9763  17.9647  20.3770  21.6508  22.5058  23.7460
    25.7172  28.0243  29.5155  29.9495  30.4172  31.2916  32.8895  33.1680
    34.7019  35.8949  36.2971  36.8166  37.6939  39.4555  39.6195  40.3353
    42.7407  43.1373  43.3881  43.9242  45.4254  47.3254  47.8330  49.7365
    49.7907  50.1121  51.1188  52.0206  54.7814  55.5636  56.7687  56.8836
    57.1821  57.9945  58.8255  59.4180  59.5782  61.1310  61.5859  62.8101
    63.0762  63.3625  64.7481  64.9807  66.1167  66.8839  67.5517  68.5465
    68.7126  69.7831  69.8756  71.2044  71.4755  72.5527

     occupation numbers 
     1.0000   1.0000   1.0000   1.0000   0.0000   0.0000   0.0000   0.0000
     0.0000   0.0000   0.0000   0.0000   0.0000   0.0000   0.0000   0.0000
     0.0000   0.0000   0.0000   0.0000   0.0000   0.0000   0.0000   0.0000
     0.0000   0.0000   0.0000   0.0000   0.0000   0.0000   0.0000   0.0000
     0.0000   0.0000   0.0000   0.0000   0.0000   0.0000   0.0000   0.0000
     0.0000   0.0000   0.0000   0.0000   0.0000   0.0000   0.0000   0.0000
     0.0000   0.0000   0.0000   0.0000   0.0000   0.0000   0.0000   0.0000
     0.0000   0.0000   0.0000   0.0000   0.0000   0.0000   0.0000   0.0000
     0.0000   0.0000   0.0000   0.0000   0.0000   0.0000

          k =-0.3182-0.3182 0.8132 (  2952 PWs)   bands (ev):

    -6.0598  -1.2864   1.6913   3.5725   7.6010   9.9474  10.7747  12.3808
    14.3711  14.6674  16.9694  19.1707  21.0595  22.1430  22.2493  24.8115
    26.7158  28.1492  28.3521  28.3737  29.3552  30.8376  31.9753  32.4776
    33.2665  33.6419  35.3994  37.5678  38.1556  39.3770  40.6240  41.4728
    41.5351  42.3364  43.0962  45.5687  47.1537  47.3988  47.7780  48.1647
    52.1620  52.2788  53.2412  53.6496  54.2931  54.8151  55.4042  56.4630
    56.9669  58.4572  58.8402  59.1993  60.2343  60.8146  61.1564  62.5851
    62.6733  63.8604  63.9557  65.0372  66.8615  67.5795  68.6704  68.9716
    69.2150  70.1002  70.3684  72.0305  73.3020  73.3569

     occupation numbers 
     1.0000   1.0000   1.0000   1.0000   0.0000   0.0000   0.0000   0.0000
     0.0000   0.0000   0.0000   0.0000   0.0000   0.0000   0.0000   0.0000
     0.0000   0.0000   0.0000   0.0000   0.0000   0.0000   0.0000   0.0000
     0.0000   0.0000   0.0000   0.0000   0.0000   0.0000   0.0000   0.0000
     0.0000   0.0000   0.0000   0.0000   0.0000   0.0000   0.0000   0.0000
     0.0000   0.0000   0.0000   0.0000   0.0000   0.0000   0.0000   0.0000
     0.0000   0.0000   0.0000   0.0000   0.0000   0.0000   0.0000   0.0000
     0.0000   0.0000   0.0000   0.0000   0.0000   0.0000   0.0000   0.0000
     0.0000   0.0000   0.0000   0.0000   0.0000   0.0000

          k =-0.2475-0.2475 0.7425 (  2944 PWs)   bands (ev):

    -5.6871  -1.5048   0.9653   3.0947   7.2879  10.9305  12.0243  12.3767
    13.1486  14.6873  18.8774  19.8128  21.3762  22.4491  23.0741  24.4545
    25.9620  27.0200  27.9800  28.1764  29.2600  29.3318  31.0652  32.0564
    33.4203  33.9326  34.0258  36.1786  39.3681  39.3760  40.7524  41.0005
    41.4349  41.9966  44.6898  45.9874  46.3475  48.0970  50.5198  50.6917
    51.6538  51.6892  52.3914  53.6329  54.0092  55.3970  55.7662  56.4971
    57.2629  57.8490  57.9048  59.2289  59.7162  61.4479  61.7135  62.4741
    63.7100  63.7325  64.0950  65.1927  65.9711  66.8475  68.4586  68.4603
    70.7828  70.9435  71.9454  73.7323  74.3472  75.1276

     occupation numbers 
     1.0000   1.0000   1.0000   1.0000   0.0000   0.0000   0.0000   0.0000
     0.0000   0.0000   0.0000   0.0000   0.0000   0.0000   0.0000   0.0000
     0.0000   0.0000   0.0000   0.0000   0.0000   0.0000   0.0000   0.0000
     0.0000   0.0000   0.0000   0.0000   0.0000   0.0000   0.0000   0.0000
     0.0000   0.0000   0.0000   0.0000   0.0000   0.0000   0.0000   0.0000
     0.0000   0.0000   0.0000   0.0000   0.0000   0.0000   0.0000   0.0000
     0.0000   0.0000   0.0000   0.0000   0.0000   0.0000   0.0000   0.0000
     0.0000   0.0000   0.0000   0.0000   0.0000   0.0000   0.0000   0.0000
     0.0000   0.0000   0.0000   0.0000   0.0000   0.0000

          k = 0.3889 0.2475 0.2475 (  2934 PWs)   bands (ev):

    -6.2764  -1.3675   3.1732   3.6146   6.9654   9.3324  10.2032  12.5173
    14.3861  16.0179  16.9882  18.1263  18.7904  21.4077  23.3547  24.5050
    26.1266  27.9387  29.5842  29.8712  30.1283  31.0482  31.7217  33.5315
    34.9052  35.2534  35.8118  35.9792  37.7814  39.2967  39.3709  40.2892
    42.0266  43.0474  43.3369  44.7435  45.6066  47.7384  48.5295  49.7486
    50.3370  51.3003  52.1913  52.6900  52.7436  54.0872  56.2599  56.8317
    58.1530  58.3205  59.9332  60.0546  60.6114  61.7167  61.7605  62.2841
    63.2391  64.0095  64.5353  64.8410  66.3869  67.2308  67.5515  68.2895
    68.7617  69.4302  70.0687  70.8629  71.1163  71.7366

     occupation numbers 
     1.0000   1.0000   1.0000   1.0000   0.0000   0.0000   0.0000   0.0000
     0.0000   0.0000   0.0000   0.0000   0.0000   0.0000   0.0000   0.0000
     0.0000   0.0000   0.0000   0.0000   0.0000   0.0000   0.0000   0.0000
     0.0000   0.0000   0.0000   0.0000   0.0000   0.0000   0.0000   0.0000
     0.0000   0.0000   0.0000   0.0000   0.0000   0.0000   0.0000   0.0000
     0.0000   0.0000   0.0000   0.0000   0.0000   0.0000   0.0000   0.0000
     0.0000   0.0000   0.0000   0.0000   0.0000   0.0000   0.0000   0.0000
     0.0000   0.0000   0.0000   0.0000   0.0000   0.0000   0.0000   0.0000
     0.0000   0.0000   0.0000   0.0000   0.0000   0.0000

          k =-0.2475-0.3889 0.8839 (  2943 PWs)   bands (ev):

    -6.0157  -1.5124   2.1437   3.3425   7.7438   9.1642  10.8844  12.5130
    14.4652  16.2027  16.6577  18.3099  19.9988  21.9172  23.2874  25.3613
    26.5344  27.3291  28.3241  28.9687  29.7751  31.1823  31.6911  32.3011
    33.0209  35.0429  35.4650  36.4590  37.0339  39.4515  39.9090  40.3482
    42.1622  42.7663  44.1791  46.2316  46.7876  47.1182  48.5631  49.0618
    50.5562  51.3007  53.0764  54.0356  54.2767  55.0664  55.7562  56.5365
    57.0651  57.8529  58.7606  59.8173  60.2935  61.2425  61.7931  62.6665
    63.5568  64.4612  64.9118  65.4242  66.2418  67.2009  68.0071  68.0602
    69.4139  70.1712  70.7960  71.9559  72.3065  72.9889

     occupation numbers 
     1.0000   1.0000   1.0000   1.0000   0.0000   0.0000   0.0000   0.0000
     0.0000   0.0000   0.0000   0.0000   0.0000   0.0000   0.0000   0.0000
     0.0000   0.0000   0.0000   0.0000   0.0000   0.0000   0.0000   0.0000
     0.0000   0.0000   0.0000   0.0000   0.0000   0.0000   0.0000   0.0000
     0.0000   0.0000   0.0000   0.0000   0.0000   0.0000   0.0000   0.0000
     0.0000   0.0000   0.0000   0.0000   0.0000   0.0000   0.0000   0.0000
     0.0000   0.0000   0.0000   0.0000   0.0000   0.0000   0.0000   0.0000
     0.0000   0.0000   0.0000   0.0000   0.0000   0.0000   0.0000   0.0000
     0.0000   0.0000   0.0000   0.0000   0.0000   0.0000

          k =-0.1768-0.3182 0.8132 (  2946 PWs)   bands (ev):

    -5.7104  -1.5625   1.2774   2.8134   8.0043   9.7980  11.4642  12.8233
    13.2421  16.2551  18.0188  18.7949  21.6895  22.3899  23.0719  24.9206
    25.6873  27.0316  27.7199  28.4186  29.1513  30.3858  30.9316  32.2743
    32.5989  34.5264  35.3288  36.3197  37.0256  38.2498  38.7731  42.0947
    43.4299  44.4346  44.9431  45.8646  46.6492  47.3493  48.6119  50.0871
    50.5789  51.3510  52.6549  53.9924  54.5204  55.4659  56.1797  56.9460
    57.4119  57.6214  58.7610  59.6776  60.1516  60.5267  60.9941  62.0379
    63.2227  63.5808  64.0129  66.4446  67.4883  68.0915  68.4071  69.4741
    70.2253  70.6761  70.8577  71.7855  72.5436  73.3760

     occupation numbers 
     1.0000   1.0000   1.0000   1.0000   0.0000   0.0000   0.0000   0.0000
     0.0000   0.0000   0.0000   0.0000   0.0000   0.0000   0.0000   0.0000
     0.0000   0.0000   0.0000   0.0000   0.0000   0.0000   0.0000   0.0000
     0.0000   0.0000   0.0000   0.0000   0.0000   0.0000   0.0000   0.0000
     0.0000   0.0000   0.0000   0.0000   0.0000   0.0000   0.0000   0.0000
     0.0000   0.0000   0.0000   0.0000   0.0000   0.0000   0.0000   0.0000
     0.0000   0.0000   0.0000   0.0000   0.0000   0.0000   0.0000   0.0000
     0.0000   0.0000   0.0000   0.0000   0.0000   0.0000   0.0000   0.0000
     0.0000   0.0000   0.0000   0.0000   0.0000   0.0000

          k =-0.8839 0.2475 0.2475 (  2936 PWs)   bands (ev):

    -5.8875  -1.5976   1.8209   3.2642   7.4070   9.8368  11.1031  12.2450
    14.6254  16.1463  16.8439  18.6990  19.9162  22.3703  23.8675  25.4964
    25.6907  27.4502  27.5811  28.6833  29.4050  31.0274  32.1566  32.3075
    33.5380  33.8300  34.4286  36.5572  37.3495  38.9480  40.3364  41.7752
    41.8369  42.5843  43.3330  46.4819  47.0501  47.2421  48.8656  50.9357
    51.1426  51.7980  52.1481  53.0736  53.1698  55.1311  56.1975  56.6288
    57.8728  57.9384  58.3092  59.4273  60.2960  61.7605  62.0319  62.6170
    62.9584  64.4240  64.6701  65.8090  66.5411  67.7505  67.7512  69.1266
    69.6895  70.2149  70.6841  70.8794  72.2717  72.7642

     occupation numbers 
     1.0000   1.0000   1.0000   1.0000   0.0000   0.0000   0.0000   0.0000
     0.0000   0.0000   0.0000   0.0000   0.0000   0.0000   0.0000   0.0000
     0.0000   0.0000   0.0000   0.0000   0.0000   0.0000   0.0000   0.0000
     0.0000   0.0000   0.0000   0.0000   0.0000   0.0000   0.0000   0.0000
     0.0000   0.0000   0.0000   0.0000   0.0000   0.0000   0.0000   0.0000
     0.0000   0.0000   0.0000   0.0000   0.0000   0.0000   0.0000   0.0000
     0.0000   0.0000   0.0000   0.0000   0.0000   0.0000   0.0000   0.0000
     0.0000   0.0000   0.0000   0.0000   0.0000   0.0000   0.0000   0.0000
     0.0000   0.0000   0.0000   0.0000   0.0000   0.0000

          k = 0.3182 0.3182 0.3182 (  2929 PWs)   bands (ev):

    -6.2452  -1.6315   3.8749   3.8749   6.1115   9.6561   9.6561  12.7071
    14.9706  16.5099  16.5099  18.2430  18.9620  18.9620  24.0276  26.3833
    26.3833  27.6573  29.4345  29.4345  30.1639  32.2086  32.2086  33.4581
    33.9569  33.9569  35.2830  38.2859  38.2859  39.1078  39.1078  39.7197
    40.1033  40.6781  46.1151  46.1151  46.4449  46.7186  46.7186  48.3234
    50.7151  51.6401  51.6401  55.2087  55.2087  55.3174  56.3028  56.3028
    57.6141  57.9119  57.9119  60.3682  60.3682  61.5949  62.9548  62.9548
    63.9890  63.9890  64.4790  64.4862  66.6968  67.0363  67.0363  67.7349
    67.7349  68.7488  70.1753  71.2425  71.2425  71.4549

     occupation numbers 
     1.0000   1.0000   1.0000   1.0000   0.0000   0.0000   0.0000   0.0000
     0.0000   0.0000   0.0000   0.0000   0.0000   0.0000   0.0000   0.0000
     0.0000   0.0000   0.0000   0.0000   0.0000   0.0000   0.0000   0.0000
     0.0000   0.0000   0.0000   0.0000   0.0000   0.0000   0.0000   0.0000
     0.0000   0.0000   0.0000   0.0000   0.0000   0.0000   0.0000   0.0000
     0.0000   0.0000   0.0000   0.0000   0.0000   0.0000   0.0000   0.0000
     0.0000   0.0000   0.0000   0.0000   0.0000   0.0000   0.0000   0.0000
     0.0000   0.0000   0.0000   0.0000   0.0000   0.0000   0.0000   0.0000
     0.0000   0.0000   0.0000   0.0000   0.0000   0.0000

          k =-0.3182-0.3182 0.9546 (  2940 PWs)   bands (ev):

    -6.1052  -1.6963   2.9763   3.7133   6.9040   9.4258  10.0049  13.0640
    14.9374  16.2085  16.3378  18.1887  19.3721  19.8419  24.3229  26.3165
    27.0348  27.3211  28.6853  29.2627  30.4984  30.6004  31.8149  32.9733
    33.4131  35.2045  35.5611  35.5706  37.8920  39.0695  39.3202  40.5672
    42.2962  42.7911  42.9322  44.1935  45.4232  48.4309  49.0027  50.1784
    51.4154  51.8436  51.9818  53.9822  54.2083  54.7626  55.2393  56.5916
    58.1821  58.2939  59.0425  59.6595  60.7218  61.3322  62.4828  62.7777
    63.3766  64.2534  64.6363  65.1911  66.2045  66.8768  67.3846  67.9705
    68.6995  69.1042  70.0732  71.1727  72.2668  72.7325

     occupation numbers 
     1.0000   1.0000   1.0000   1.0000   0.0000   0.0000   0.0000   0.0000
     0.0000   0.0000   0.0000   0.0000   0.0000   0.0000   0.0000   0.0000
     0.0000   0.0000   0.0000   0.0000   0.0000   0.0000   0.0000   0.0000
     0.0000   0.0000   0.0000   0.0000   0.0000   0.0000   0.0000   0.0000
     0.0000   0.0000   0.0000   0.0000   0.0000   0.0000   0.0000   0.0000
     0.0000   0.0000   0.0000   0.0000   0.0000   0.0000   0.0000   0.0000
     0.0000   0.0000   0.0000   0.0000   0.0000   0.0000   0.0000   0.0000
     0.0000   0.0000   0.0000   0.0000   0.0000   0.0000   0.0000   0.0000
     0.0000   0.0000   0.0000   0.0000   0.0000   0.0000

     highest occupied, lowest unoccupied level (ev):     4.9567    6.1115

     Writing output data file run_output/GaAs.save/

     init_run     :      0.11s CPU      0.16s WALL (       1 calls)
     electrons    :      8.96s CPU      9.22s WALL (       1 calls)

     Called by init_run:
     wfcinit      :      0.00s CPU      0.01s WALL (       1 calls)
     wfcinit:atom :      0.00s CPU      0.00s WALL (      16 calls)
     wfcinit:wfcr :      0.56s CPU      0.65s WALL (      16 calls)
     potinit      :      0.01s CPU      0.03s WALL (       1 calls)
     hinit0       :      0.03s CPU      0.04s WALL (       1 calls)

     Called by electrons:
     c_bands      :      8.95s CPU      9.18s WALL (       1 calls)
     v_of_rho     :      0.00s CPU      0.00s WALL (       1 calls)
     v_h          :      0.00s CPU      0.00s WALL (       1 calls)
     v_xc         :      0.00s CPU      0.00s WALL (       1 calls)

     Called by c_bands:
     init_us_2    :      0.00s CPU      0.00s WALL (      16 calls)
     cegterg      :      6.64s CPU      6.77s WALL (      19 calls)

     Called by sum_band:

     Called by *egterg:
     cdiaghg      :      1.92s CPU      2.04s WALL (     308 calls)
     cegterg:over :      0.33s CPU      0.33s WALL (     292 calls)
     cegterg:upda :      0.17s CPU      0.17s WALL (     292 calls)
     cegterg:last :      0.31s CPU      0.32s WALL (     133 calls)
     cdiaghg:chol :      0.10s CPU      0.14s WALL (     308 calls)
     cdiaghg:inve :      0.09s CPU      0.10s WALL (     308 calls)
     cdiaghg:para :      0.16s CPU      0.16s WALL (     616 calls)
     h_psi        :      4.37s CPU      4.43s WALL (     327 calls)
     g_psi        :      0.04s CPU      0.04s WALL (     292 calls)

     Called by h_psi:
     h_psi:calbec :      0.04s CPU      0.05s WALL (     327 calls)
     vloc_psi     :      4.29s CPU      4.35s WALL (     327 calls)
     add_vuspsi   :      0.02s CPU      0.02s WALL (     327 calls)

     General routines
     calbec       :      0.04s CPU      0.04s WALL (     327 calls)
     fft          :      0.00s CPU      0.01s WALL (       4 calls)
     fftw         :      3.60s CPU      3.65s WALL (   21384 calls)
     davcio       :      0.00s CPU      0.02s WALL (      32 calls)

     Parallel routines
     fft_scatt_xy :      0.57s CPU      0.57s WALL (   21388 calls)
     fft_scatt_yz :      0.93s CPU      0.95s WALL (   21388 calls)

     PWSCF        :      9.70s CPU     14.97s WALL


   This run was terminated on:  16:55:51   9Nov2021            

=------------------------------------------------------------------------------=
   JOB DONE.
=------------------------------------------------------------------------------=
