
     Program PWSCF v.6.7MaX starts on  9Nov2021 at 18:17:45 

     This program is part of the open-source Quantum ESPRESSO suite
     for quantum simulation of materials; please cite
         "P. Giannozzi et al., J. Phys.:Condens. Matter 21 395502 (2009);
         "P. Giannozzi et al., J. Phys.:Condens. Matter 29 465901 (2017);
          URL http://www.quantum-espresso.org", 
     in publications or presentations arising from this work. More details at
     http://www.quantum-espresso.org/quote

     Parallel version (MPI), running on    84 processors

     MPI processes distributed on     3 nodes
     K-points division:     npool     =       7
     R & G space division:  proc/nbgrp/npool/nimage =      12
     Waiting for input...
     Reading input from standard input

     Current dimensions of program PWSCF are:
     Max number of different atomic species (ntypx) = 10
     Max number of k-points (npk) =  40000
     Max angular momentum in pseudopotentials (lmaxx) =  3

     Atomic positions and unit cell read from directory:
     run_output/GaAs.save/
     Atomic positions from file used, from input discarded


     Subspace diagonalization in iterative solution of the eigenvalue problem:
     one sub-group per band group will be used
     scalapack distributed-memory algorithm (size of sub-group:  3*  3 procs)

     Message from routine setup:
     using ibrav=0 with symmetry is DISCOURAGED, use correct ibrav instead

     Parallelization info
     --------------------
     sticks:   dense  smooth     PW     G-vecs:    dense   smooth      PW
     Min          89      89     27                 1957     1957     334
     Max          90      90     29                 1962     1962     336
     Sum        1069    1069    337                23505    23505    4015



     bravais-lattice index     =            0
     lattice parameter (alat)  =       7.4893  a.u.
     unit-cell volume          =     297.0321 (a.u.)^3
     number of atoms/cell      =            2
     number of atomic types    =            2
     number of electrons       =         8.00
     number of Kohn-Sham states=           20
     kinetic-energy cutoff     =      70.0000  Ry
     charge density cutoff     =     280.0000  Ry
     Exchange-correlation=  SLA  PZ   NOGX NOGC
                           (   1   1   0   0   0   0   0)

     celldm(1)=   7.489269  celldm(2)=   0.000000  celldm(3)=   0.000000
     celldm(4)=   0.000000  celldm(5)=   0.000000  celldm(6)=   0.000000

     crystal axes: (cart. coord. in units of alat)
               a(1) = (   0.000000   0.707107   0.707107 )  
               a(2) = (   0.707107   0.000000   0.707107 )  
               a(3) = (   0.707107   0.707107   0.000000 )  

     reciprocal axes: (cart. coord. in units 2 pi/alat)
               b(1) = ( -0.707107  0.707107  0.707107 )  
               b(2) = (  0.707107 -0.707107  0.707107 )  
               b(3) = (  0.707107  0.707107 -0.707107 )  


     PseudoPot. # 1 for As read from file:
     PPs/As.pz-bhs.UPF
     MD5 check sum: 451cd3365afcfc94d28b1934951c34a8
     Pseudo is Norm-conserving, Zval =  5.0
     Generated by new atomic code, or converted to UPF format
     Using radial grid of  525 points,  2 beta functions with: 
                l(1) =   0
                l(2) =   1

     PseudoPot. # 2 for Ga read from file:
     PPs/Ga_hamlu.fhi.UPF
     MD5 check sum: 4ad1663a8a964d7f0e56f5e6e9567420
     Pseudo is Norm-conserving + core correction, Zval =  3.0
     Generated by new atomic code, or converted to UPF format
     Using radial grid of  529 points,  2 beta functions with: 
                l(1) =   1
                l(2) =   2

     atomic species   valence    mass     pseudopotential
        As             5.00    74.92160     As( 1.00)
        Ga             3.00    69.72300     Ga( 1.00)

     24 Sym. Ops. (no inversion) found


                                    s                        frac. trans.

      isym =  1     identity                                     

 cryst.   s( 1) = (     1          0          0      )
                  (     0          1          0      )
                  (     0          0          1      )

 cart.    s( 1) = (  1.0000000 -0.0000000  0.0000000 )
                  ( -0.0000000  1.0000000  0.0000000 )
                  ( -0.0000000  0.0000000  1.0000000 )


      isym =  2     180 deg rotation - cart. axis [0,0,1]        

 cryst.   s( 2) = (     0          1         -1      )
                  (     1          0         -1      )
                  (     0          0         -1      )

 cart.    s( 2) = ( -1.0000000  0.0000000  0.0000000 )
                  (  0.0000000 -1.0000000  0.0000000 )
                  (  0.0000000 -0.0000000  1.0000000 )


      isym =  3     180 deg rotation - cart. axis [0,1,0]        

 cryst.   s( 3) = (     0         -1          1      )
                  (     0         -1          0      )
                  (     1         -1          0      )

 cart.    s( 3) = ( -1.0000000 -0.0000000 -0.0000000 )
                  (  0.0000000  1.0000000 -0.0000000 )
                  (  0.0000000  0.0000000 -1.0000000 )


      isym =  4     180 deg rotation - cart. axis [1,0,0]        

 cryst.   s( 4) = (    -1          0          0      )
                  (    -1          0          1      )
                  (    -1          1          0      )

 cart.    s( 4) = (  1.0000000  0.0000000 -0.0000000 )
                  ( -0.0000000 -1.0000000 -0.0000000 )
                  ( -0.0000000 -0.0000000 -1.0000000 )


      isym =  5     120 deg rotation - cart. axis [-1,-1,-1]     

 cryst.   s( 5) = (     0          0          1      )
                  (     1          0          0      )
                  (     0          1          0      )

 cart.    s( 5) = (  0.0000000  1.0000000 -0.0000000 )
                  (  0.0000000 -0.0000000  1.0000000 )
                  (  1.0000000 -0.0000000  0.0000000 )


      isym =  6     120 deg rotation - cart. axis [-1,1,1]       

 cryst.   s( 6) = (     1         -1          0      )
                  (     0         -1          1      )
                  (     0         -1          0      )

 cart.    s( 6) = ( -0.0000000 -1.0000000 -0.0000000 )
                  ( -0.0000000  0.0000000  1.0000000 )
                  ( -1.0000000  0.0000000  0.0000000 )


      isym =  7     120 deg rotation - cart. axis [1,1,-1]       

 cryst.   s( 7) = (    -1          1          0      )
                  (    -1          0          0      )
                  (    -1          0          1      )

 cart.    s( 7) = ( -0.0000000  1.0000000  0.0000000 )
                  ( -0.0000000 -0.0000000 -1.0000000 )
                  ( -1.0000000 -0.0000000 -0.0000000 )


      isym =  8     120 deg rotation - cart. axis [1,-1,1]       

 cryst.   s( 8) = (     0          0         -1      )
                  (     0          1         -1      )
                  (     1          0         -1      )

 cart.    s( 8) = (  0.0000000 -1.0000000  0.0000000 )
                  (  0.0000000  0.0000000 -1.0000000 )
                  (  1.0000000  0.0000000 -0.0000000 )


      isym =  9     120 deg rotation - cart. axis [1,1,1]        

 cryst.   s( 9) = (     0          1          0      )
                  (     0          0          1      )
                  (     1          0          0      )

 cart.    s( 9) = ( -0.0000000  0.0000000  1.0000000 )
                  (  1.0000000  0.0000000 -0.0000000 )
                  (  0.0000000  1.0000000 -0.0000000 )


      isym = 10     120 deg rotation - cart. axis [-1,1,-1]      

 cryst.   s(10) = (    -1          0          1      )
                  (    -1          1          0      )
                  (    -1          0          0      )

 cart.    s(10) = (  0.0000000 -0.0000000  1.0000000 )
                  ( -1.0000000 -0.0000000 -0.0000000 )
                  ( -0.0000000 -1.0000000 -0.0000000 )


      isym = 11     120 deg rotation - cart. axis [1,-1,-1]      

 cryst.   s(11) = (     1          0         -1      )
                  (     0          0         -1      )
                  (     0          1         -1      )

 cart.    s(11) = (  0.0000000  0.0000000 -1.0000000 )
                  ( -1.0000000  0.0000000  0.0000000 )
                  ( -0.0000000  1.0000000  0.0000000 )


      isym = 12     120 deg rotation - cart. axis [-1,-1,1]      

 cryst.   s(12) = (     0         -1          0      )
                  (     1         -1          0      )
                  (     0         -1          1      )

 cart.    s(12) = ( -0.0000000 -0.0000000 -1.0000000 )
                  (  1.0000000 -0.0000000  0.0000000 )
                  (  0.0000000 -1.0000000  0.0000000 )


      isym = 13     inv. 180 deg rotation - cart. axis [1,1,0]   

 cryst.   s(13) = (     1          0         -1      )
                  (     0          1         -1      )
                  (     0          0         -1      )

 cart.    s(13) = (  0.0000000 -1.0000000  0.0000000 )
                  ( -1.0000000  0.0000000  0.0000000 )
                  ( -0.0000000  0.0000000  1.0000000 )


      isym = 14     inv. 180 deg rotation - cart. axis [1,-1,0]  

 cryst.   s(14) = (     0          1          0      )
                  (     1          0          0      )
                  (     0          0          1      )

 cart.    s(14) = ( -0.0000000  1.0000000  0.0000000 )
                  (  1.0000000 -0.0000000  0.0000000 )
                  (  0.0000000 -0.0000000  1.0000000 )


      isym = 15     inv.  90 deg rotation - cart. axis [0,0,-1]  

 cryst.   s(15) = (     0         -1          0      )
                  (     0         -1          1      )
                  (     1         -1          0      )

 cart.    s(15) = ( -0.0000000 -1.0000000 -0.0000000 )
                  (  1.0000000  0.0000000 -0.0000000 )
                  (  0.0000000  0.0000000 -1.0000000 )


      isym = 16     inv.  90 deg rotation - cart. axis [0,0,1]   

 cryst.   s(16) = (    -1          0          1      )
                  (    -1          0          0      )
                  (    -1          1          0      )

 cart.    s(16) = (  0.0000000  1.0000000 -0.0000000 )
                  ( -1.0000000 -0.0000000 -0.0000000 )
                  ( -0.0000000 -0.0000000 -1.0000000 )


      isym = 17     inv. 180 deg rotation - cart. axis [1,0,1]   

 cryst.   s(17) = (     1         -1          0      )
                  (     0         -1          0      )
                  (     0         -1          1      )

 cart.    s(17) = ( -0.0000000 -0.0000000 -1.0000000 )
                  ( -0.0000000  1.0000000  0.0000000 )
                  ( -1.0000000  0.0000000  0.0000000 )


      isym = 18     inv. 180 deg rotation - cart. axis [-1,0,1]  

 cryst.   s(18) = (     0          0          1      )
                  (     0          1          0      )
                  (     1          0          0      )

 cart.    s(18) = (  0.0000000 -0.0000000  1.0000000 )
                  (  0.0000000  1.0000000 -0.0000000 )
                  (  1.0000000  0.0000000 -0.0000000 )


      isym = 19     inv.  90 deg rotation - cart. axis [0,1,0]   

 cryst.   s(19) = (     0          0         -1      )
                  (     1          0         -1      )
                  (     0          1         -1      )

 cart.    s(19) = (  0.0000000  0.0000000 -1.0000000 )
                  (  0.0000000 -1.0000000  0.0000000 )
                  (  1.0000000 -0.0000000  0.0000000 )


      isym = 20     inv.  90 deg rotation - cart. axis [0,-1,0]  

 cryst.   s(20) = (    -1          1          0      )
                  (    -1          0          1      )
                  (    -1          0          0      )

 cart.    s(20) = ( -0.0000000  0.0000000  1.0000000 )
                  ( -0.0000000 -1.0000000 -0.0000000 )
                  ( -1.0000000 -0.0000000 -0.0000000 )


      isym = 21     inv. 180 deg rotation - cart. axis [0,1,1]   

 cryst.   s(21) = (    -1          0          0      )
                  (    -1          1          0      )
                  (    -1          0          1      )

 cart.    s(21) = (  1.0000000 -0.0000000  0.0000000 )
                  ( -0.0000000 -0.0000000 -1.0000000 )
                  ( -0.0000000 -1.0000000 -0.0000000 )


      isym = 22     inv. 180 deg rotation - cart. axis [0,1,-1]  

 cryst.   s(22) = (     1          0          0      )
                  (     0          0          1      )
                  (     0          1          0      )

 cart.    s(22) = (  1.0000000  0.0000000 -0.0000000 )
                  ( -0.0000000  0.0000000  1.0000000 )
                  ( -0.0000000  1.0000000  0.0000000 )


      isym = 23     inv.  90 deg rotation - cart. axis [-1,0,0]  

 cryst.   s(23) = (     0          1         -1      )
                  (     0          0         -1      )
                  (     1          0         -1      )

 cart.    s(23) = ( -1.0000000  0.0000000  0.0000000 )
                  (  0.0000000  0.0000000 -1.0000000 )
                  (  0.0000000  1.0000000 -0.0000000 )


      isym = 24     inv.  90 deg rotation - cart. axis [1,0,0]   

 cryst.   s(24) = (     0         -1          1      )
                  (     1         -1          0      )
                  (     0         -1          0      )

 cart.    s(24) = ( -1.0000000 -0.0000000 -0.0000000 )
                  (  0.0000000 -0.0000000  1.0000000 )
                  (  0.0000000 -1.0000000  0.0000000 )


   Cartesian axes

     site n.     atom                  positions (alat units)
         1           Ga  tau(   1) = (   0.0000000   0.0000000   0.0000000  )
         2           As  tau(   2) = (   0.3535534   1.0606602   1.0606602  )

   Crystallographic axes

     site n.     atom                  positions (cryst. coord.)
         1           Ga  tau(   1) = (  0.0000000  0.0000000  0.0000000  )
         2           As  tau(   2) = (  1.2500000  0.2500000  0.2500000  )

     number of k points=   770
                       cart. coord. in units 2pi/alat
        k(    1) = (   0.0176777   0.0176777   0.0176777), wk =   0.0005000
        k(    2) = (   0.0530330   0.0530330  -0.0176777), wk =   0.0015000
        k(    3) = (   0.0883883   0.0883883  -0.0530330), wk =   0.0015000
        k(    4) = (   0.1237437   0.1237437  -0.0883883), wk =   0.0015000
        k(    5) = (   0.1590990   0.1590990  -0.1237437), wk =   0.0015000
        k(    6) = (   0.1944544   0.1944544  -0.1590990), wk =   0.0015000
        k(    7) = (   0.2298097   0.2298097  -0.1944544), wk =   0.0015000
        k(    8) = (   0.2651650   0.2651650  -0.2298097), wk =   0.0015000
        k(    9) = (   0.3005204   0.3005204  -0.2651650), wk =   0.0015000
        k(   10) = (   0.3358757   0.3358757  -0.3005204), wk =   0.0015000
        k(   11) = (  -0.3358757  -0.3358757   0.3712311), wk =   0.0015000
        k(   12) = (  -0.3005204  -0.3005204   0.3358757), wk =   0.0015000
        k(   13) = (  -0.2651650  -0.2651650   0.3005204), wk =   0.0015000
        k(   14) = (  -0.2298097  -0.2298097   0.2651650), wk =   0.0015000
        k(   15) = (  -0.1944544  -0.1944544   0.2298097), wk =   0.0015000
        k(   16) = (  -0.1590990  -0.1590990   0.1944544), wk =   0.0015000
        k(   17) = (  -0.1237437  -0.1237437   0.1590990), wk =   0.0015000
        k(   18) = (  -0.0883883  -0.0883883   0.1237437), wk =   0.0015000
        k(   19) = (  -0.0530330  -0.0530330   0.0883883), wk =   0.0015000
        k(   20) = (  -0.0176777  -0.0176777   0.0530330), wk =   0.0015000
        k(   21) = (   0.0883883   0.0176777   0.0176777), wk =   0.0015000
        k(   22) = (   0.1237437   0.0530330  -0.0176777), wk =   0.0030000
        k(   23) = (   0.1590990   0.0883883  -0.0530330), wk =   0.0030000
        k(   24) = (   0.1944544   0.1237437  -0.0883883), wk =   0.0030000
        k(   25) = (   0.2298097   0.1590990  -0.1237437), wk =   0.0030000
        k(   26) = (   0.2651650   0.1944544  -0.1590990), wk =   0.0030000
        k(   27) = (   0.3005204   0.2298097  -0.1944544), wk =   0.0030000
        k(   28) = (   0.3358757   0.2651650  -0.2298097), wk =   0.0030000
        k(   29) = (   0.3712311   0.3005204  -0.2651650), wk =   0.0030000
        k(   30) = (  -0.3005204  -0.3712311   0.4065864), wk =   0.0030000
        k(   31) = (  -0.2651650  -0.3358757   0.3712311), wk =   0.0030000
        k(   32) = (  -0.2298097  -0.3005204   0.3358757), wk =   0.0030000
        k(   33) = (  -0.1944544  -0.2651650   0.3005204), wk =   0.0030000
        k(   34) = (  -0.1590990  -0.2298097   0.2651650), wk =   0.0030000
        k(   35) = (  -0.1237437  -0.1944544   0.2298097), wk =   0.0030000
        k(   36) = (  -0.0883883  -0.1590990   0.1944544), wk =   0.0030000
        k(   37) = (  -0.0530330  -0.1237437   0.1590990), wk =   0.0030000
        k(   38) = (  -0.0176777  -0.0883883   0.1237437), wk =   0.0030000
        k(   39) = (   0.0176777  -0.0530330   0.0883883), wk =   0.0030000
        k(   40) = (   0.1590990   0.0176777   0.0176777), wk =   0.0015000
        k(   41) = (   0.1944544   0.0530330  -0.0176777), wk =   0.0030000
        k(   42) = (   0.2298097   0.0883883  -0.0530330), wk =   0.0030000
        k(   43) = (   0.2651650   0.1237437  -0.0883883), wk =   0.0030000
        k(   44) = (   0.3005204   0.1590990  -0.1237437), wk =   0.0030000
        k(   45) = (   0.3358757   0.1944544  -0.1590990), wk =   0.0030000
        k(   46) = (   0.3712311   0.2298097  -0.1944544), wk =   0.0030000
        k(   47) = (   0.4065864   0.2651650  -0.2298097), wk =   0.0030000
        k(   48) = (  -0.2651650  -0.4065864   0.4419417), wk =   0.0030000
        k(   49) = (  -0.2298097  -0.3712311   0.4065864), wk =   0.0030000
        k(   50) = (  -0.1944544  -0.3358757   0.3712311), wk =   0.0030000
        k(   51) = (  -0.1590990  -0.3005204   0.3358757), wk =   0.0030000
        k(   52) = (  -0.1237437  -0.2651650   0.3005204), wk =   0.0030000
        k(   53) = (  -0.0883883  -0.2298097   0.2651650), wk =   0.0030000
        k(   54) = (  -0.0530330  -0.1944544   0.2298097), wk =   0.0030000
        k(   55) = (  -0.0176777  -0.1590990   0.1944544), wk =   0.0030000
        k(   56) = (   0.0176777  -0.1237437   0.1590990), wk =   0.0030000
        k(   57) = (   0.0530330  -0.0883883   0.1237437), wk =   0.0030000
        k(   58) = (   0.2298097   0.0176777   0.0176777), wk =   0.0015000
        k(   59) = (   0.2651650   0.0530330  -0.0176777), wk =   0.0030000
        k(   60) = (   0.3005204   0.0883883  -0.0530330), wk =   0.0030000
        k(   61) = (   0.3358757   0.1237437  -0.0883883), wk =   0.0030000
        k(   62) = (   0.3712311   0.1590990  -0.1237437), wk =   0.0030000
        k(   63) = (   0.4065864   0.1944544  -0.1590990), wk =   0.0030000
        k(   64) = (   0.4419417   0.2298097  -0.1944544), wk =   0.0030000
        k(   65) = (  -0.2298097  -0.4419417   0.4772971), wk =   0.0030000
        k(   66) = (  -0.1944544  -0.4065864   0.4419417), wk =   0.0030000
        k(   67) = (  -0.1590990  -0.3712311   0.4065864), wk =   0.0030000
        k(   68) = (  -0.1237437  -0.3358757   0.3712311), wk =   0.0030000
        k(   69) = (  -0.0883883  -0.3005204   0.3358757), wk =   0.0030000
        k(   70) = (  -0.0530330  -0.2651650   0.3005204), wk =   0.0030000
        k(   71) = (  -0.0176777  -0.2298097   0.2651650), wk =   0.0030000
        k(   72) = (   0.0176777  -0.1944544   0.2298097), wk =   0.0030000
        k(   73) = (   0.0530330  -0.1590990   0.1944544), wk =   0.0030000
        k(   74) = (   0.0883883  -0.1237437   0.1590990), wk =   0.0030000
        k(   75) = (   0.3005204   0.0176777   0.0176777), wk =   0.0015000
        k(   76) = (   0.3358757   0.0530330  -0.0176777), wk =   0.0030000
        k(   77) = (   0.3712311   0.0883883  -0.0530330), wk =   0.0030000
        k(   78) = (   0.4065864   0.1237437  -0.0883883), wk =   0.0030000
        k(   79) = (   0.4419417   0.1590990  -0.1237437), wk =   0.0030000
        k(   80) = (   0.4772971   0.1944544  -0.1590990), wk =   0.0030000
        k(   81) = (  -0.1944544  -0.4772971   0.5126524), wk =   0.0030000
        k(   82) = (  -0.1590990  -0.4419417   0.4772971), wk =   0.0030000
        k(   83) = (  -0.1237437  -0.4065864   0.4419417), wk =   0.0030000
        k(   84) = (  -0.0883883  -0.3712311   0.4065864), wk =   0.0030000
        k(   85) = (  -0.0530330  -0.3358757   0.3712311), wk =   0.0030000
        k(   86) = (  -0.0176777  -0.3005204   0.3358757), wk =   0.0030000
        k(   87) = (   0.0176777  -0.2651650   0.3005204), wk =   0.0030000
        k(   88) = (   0.0530330  -0.2298097   0.2651650), wk =   0.0030000
        k(   89) = (   0.0883883  -0.1944544   0.2298097), wk =   0.0030000
        k(   90) = (   0.1237437  -0.1590990   0.1944544), wk =   0.0030000
        k(   91) = (   0.3712311   0.0176777   0.0176777), wk =   0.0015000
        k(   92) = (   0.4065864   0.0530330  -0.0176777), wk =   0.0030000
        k(   93) = (   0.4419417   0.0883883  -0.0530330), wk =   0.0030000
        k(   94) = (   0.4772971   0.1237437  -0.0883883), wk =   0.0030000
        k(   95) = (   0.5126524   0.1590990  -0.1237437), wk =   0.0030000
        k(   96) = (  -0.1590990  -0.5126524   0.5480078), wk =   0.0030000
        k(   97) = (  -0.1237437  -0.4772971   0.5126524), wk =   0.0030000
        k(   98) = (  -0.0883883  -0.4419417   0.4772971), wk =   0.0030000
        k(   99) = (  -0.0530330  -0.4065864   0.4419417), wk =   0.0030000
        k(  100) = (  -0.0176777  -0.3712311   0.4065864), wk =   0.0030000
        k(  101) = (   0.0176777  -0.3358757   0.3712311), wk =   0.0030000
        k(  102) = (   0.0530330  -0.3005204   0.3358757), wk =   0.0030000
        k(  103) = (   0.0883883  -0.2651650   0.3005204), wk =   0.0030000
        k(  104) = (   0.1237437  -0.2298097   0.2651650), wk =   0.0030000
        k(  105) = (   0.1590990  -0.1944544   0.2298097), wk =   0.0030000
        k(  106) = (   0.4419417   0.0176777   0.0176777), wk =   0.0015000
        k(  107) = (   0.4772971   0.0530330  -0.0176777), wk =   0.0030000
        k(  108) = (   0.5126524   0.0883883  -0.0530330), wk =   0.0030000
        k(  109) = (   0.5480078   0.1237437  -0.0883883), wk =   0.0030000
        k(  110) = (  -0.1237437  -0.5480078   0.5833631), wk =   0.0030000
        k(  111) = (  -0.0883883  -0.5126524   0.5480078), wk =   0.0030000
        k(  112) = (  -0.0530330  -0.4772971   0.5126524), wk =   0.0030000
        k(  113) = (  -0.0176777  -0.4419417   0.4772971), wk =   0.0030000
        k(  114) = (   0.0176777  -0.4065864   0.4419417), wk =   0.0030000
        k(  115) = (   0.0530330  -0.3712311   0.4065864), wk =   0.0030000
        k(  116) = (   0.0883883  -0.3358757   0.3712311), wk =   0.0030000
        k(  117) = (   0.1237437  -0.3005204   0.3358757), wk =   0.0030000
        k(  118) = (   0.1590990  -0.2651650   0.3005204), wk =   0.0030000
        k(  119) = (   0.1944544  -0.2298097   0.2651650), wk =   0.0030000
        k(  120) = (   0.5126524   0.0176777   0.0176777), wk =   0.0015000
        k(  121) = (   0.5480078   0.0530330  -0.0176777), wk =   0.0030000
        k(  122) = (   0.5833631   0.0883883  -0.0530330), wk =   0.0030000
        k(  123) = (  -0.0883883  -0.5833631   0.6187184), wk =   0.0030000
        k(  124) = (  -0.0530330  -0.5480078   0.5833631), wk =   0.0030000
        k(  125) = (  -0.0176777  -0.5126524   0.5480078), wk =   0.0030000
        k(  126) = (   0.0176777  -0.4772971   0.5126524), wk =   0.0030000
        k(  127) = (   0.0530330  -0.4419417   0.4772971), wk =   0.0030000
        k(  128) = (   0.0883883  -0.4065864   0.4419417), wk =   0.0030000
        k(  129) = (   0.1237437  -0.3712311   0.4065864), wk =   0.0030000
        k(  130) = (   0.1590990  -0.3358757   0.3712311), wk =   0.0030000
        k(  131) = (   0.1944544  -0.3005204   0.3358757), wk =   0.0030000
        k(  132) = (   0.2298097  -0.2651650   0.3005204), wk =   0.0030000
        k(  133) = (   0.5833631   0.0176777   0.0176777), wk =   0.0015000
        k(  134) = (   0.6187184   0.0530330  -0.0176777), wk =   0.0030000
        k(  135) = (  -0.0530330  -0.6187184   0.6540738), wk =   0.0030000
        k(  136) = (  -0.0176777  -0.5833631   0.6187184), wk =   0.0030000
        k(  137) = (   0.0176777  -0.5480078   0.5833631), wk =   0.0030000
        k(  138) = (   0.0530330  -0.5126524   0.5480078), wk =   0.0030000
        k(  139) = (   0.0883883  -0.4772971   0.5126524), wk =   0.0030000
        k(  140) = (   0.1237437  -0.4419417   0.4772971), wk =   0.0030000
        k(  141) = (   0.1590990  -0.4065864   0.4419417), wk =   0.0030000
        k(  142) = (   0.1944544  -0.3712311   0.4065864), wk =   0.0030000
        k(  143) = (   0.2298097  -0.3358757   0.3712311), wk =   0.0030000
        k(  144) = (   0.2651650  -0.3005204   0.3358757), wk =   0.0030000
        k(  145) = (   0.6540738   0.0176777   0.0176777), wk =   0.0015000
        k(  146) = (  -0.0176777  -0.6540738   0.6894291), wk =   0.0030000
        k(  147) = (   0.0176777  -0.6187184   0.6540738), wk =   0.0030000
        k(  148) = (   0.0530330  -0.5833631   0.6187184), wk =   0.0030000
        k(  149) = (   0.0883883  -0.5480078   0.5833631), wk =   0.0030000
        k(  150) = (   0.1237437  -0.5126524   0.5480078), wk =   0.0030000
        k(  151) = (   0.1590990  -0.4772971   0.5126524), wk =   0.0030000
        k(  152) = (   0.1944544  -0.4419417   0.4772971), wk =   0.0030000
        k(  153) = (   0.2298097  -0.4065864   0.4419417), wk =   0.0030000
        k(  154) = (   0.2651650  -0.3712311   0.4065864), wk =   0.0030000
        k(  155) = (   0.3005204  -0.3358757   0.3712311), wk =   0.0030000
        k(  156) = (  -0.6894291   0.0176777   0.0176777), wk =   0.0015000
        k(  157) = (  -0.6540738   0.0530330  -0.0176777), wk =   0.0030000
        k(  158) = (  -0.6187184   0.0883883  -0.0530330), wk =   0.0030000
        k(  159) = (  -0.5833631   0.1237437  -0.0883883), wk =   0.0030000
        k(  160) = (  -0.5480078   0.1590990  -0.1237437), wk =   0.0030000
        k(  161) = (  -0.5126524   0.1944544  -0.1590990), wk =   0.0030000
        k(  162) = (  -0.4772971   0.2298097  -0.1944544), wk =   0.0030000
        k(  163) = (  -0.4419417   0.2651650  -0.2298097), wk =   0.0030000
        k(  164) = (  -0.4065864   0.3005204  -0.2651650), wk =   0.0030000
        k(  165) = (  -0.6187184   0.0176777   0.0176777), wk =   0.0015000
        k(  166) = (  -0.5833631   0.0530330  -0.0176777), wk =   0.0030000
        k(  167) = (  -0.5480078   0.0883883  -0.0530330), wk =   0.0030000
        k(  168) = (  -0.5126524   0.1237437  -0.0883883), wk =   0.0030000
        k(  169) = (  -0.4772971   0.1590990  -0.1237437), wk =   0.0030000
        k(  170) = (  -0.4419417   0.1944544  -0.1590990), wk =   0.0030000
        k(  171) = (  -0.4065864   0.2298097  -0.1944544), wk =   0.0030000
        k(  172) = (  -0.3712311   0.2651650  -0.2298097), wk =   0.0030000
        k(  173) = (  -0.5480078   0.0176777   0.0176777), wk =   0.0015000
        k(  174) = (  -0.5126524   0.0530330  -0.0176777), wk =   0.0030000
        k(  175) = (  -0.4772971   0.0883883  -0.0530330), wk =   0.0030000
        k(  176) = (  -0.4419417   0.1237437  -0.0883883), wk =   0.0030000
        k(  177) = (  -0.4065864   0.1590990  -0.1237437), wk =   0.0030000
        k(  178) = (  -0.3712311   0.1944544  -0.1590990), wk =   0.0030000
        k(  179) = (  -0.3358757   0.2298097  -0.1944544), wk =   0.0030000
        k(  180) = (  -0.4772971   0.0176777   0.0176777), wk =   0.0015000
        k(  181) = (  -0.4419417   0.0530330  -0.0176777), wk =   0.0030000
        k(  182) = (  -0.4065864   0.0883883  -0.0530330), wk =   0.0030000
        k(  183) = (  -0.3712311   0.1237437  -0.0883883), wk =   0.0030000
        k(  184) = (  -0.3358757   0.1590990  -0.1237437), wk =   0.0030000
        k(  185) = (  -0.3005204   0.1944544  -0.1590990), wk =   0.0030000
        k(  186) = (  -0.4065864   0.0176777   0.0176777), wk =   0.0015000
        k(  187) = (  -0.3712311   0.0530330  -0.0176777), wk =   0.0030000
        k(  188) = (  -0.3358757   0.0883883  -0.0530330), wk =   0.0030000
        k(  189) = (  -0.3005204   0.1237437  -0.0883883), wk =   0.0030000
        k(  190) = (  -0.2651650   0.1590990  -0.1237437), wk =   0.0030000
        k(  191) = (  -0.3358757   0.0176777   0.0176777), wk =   0.0015000
        k(  192) = (  -0.3005204   0.0530330  -0.0176777), wk =   0.0030000
        k(  193) = (  -0.2651650   0.0883883  -0.0530330), wk =   0.0030000
        k(  194) = (  -0.2298097   0.1237437  -0.0883883), wk =   0.0030000
        k(  195) = (  -0.2651650   0.0176777   0.0176777), wk =   0.0015000
        k(  196) = (  -0.2298097   0.0530330  -0.0176777), wk =   0.0030000
        k(  197) = (  -0.1944544   0.0883883  -0.0530330), wk =   0.0030000
        k(  198) = (  -0.1944544   0.0176777   0.0176777), wk =   0.0015000
        k(  199) = (  -0.1590990   0.0530330  -0.0176777), wk =   0.0030000
        k(  200) = (  -0.1237437   0.0176777   0.0176777), wk =   0.0015000
        k(  201) = (   0.0530330   0.0530330   0.0530330), wk =   0.0005000
        k(  202) = (   0.0883883   0.0883883   0.0176777), wk =   0.0015000
        k(  203) = (   0.1237437   0.1237437  -0.0176777), wk =   0.0015000
        k(  204) = (   0.1590990   0.1590990  -0.0530330), wk =   0.0015000
        k(  205) = (   0.1944544   0.1944544  -0.0883883), wk =   0.0015000
        k(  206) = (   0.2298097   0.2298097  -0.1237437), wk =   0.0015000
        k(  207) = (   0.2651650   0.2651650  -0.1590990), wk =   0.0015000
        k(  208) = (   0.3005204   0.3005204  -0.1944544), wk =   0.0015000
        k(  209) = (   0.3358757   0.3358757  -0.2298097), wk =   0.0015000
        k(  210) = (  -0.3358757  -0.3358757   0.4419417), wk =   0.0015000
        k(  211) = (  -0.3005204  -0.3005204   0.4065864), wk =   0.0015000
        k(  212) = (  -0.2651650  -0.2651650   0.3712311), wk =   0.0015000
        k(  213) = (  -0.2298097  -0.2298097   0.3358757), wk =   0.0015000
        k(  214) = (  -0.1944544  -0.1944544   0.3005204), wk =   0.0015000
        k(  215) = (  -0.1590990  -0.1590990   0.2651650), wk =   0.0015000
        k(  216) = (  -0.1237437  -0.1237437   0.2298097), wk =   0.0015000
        k(  217) = (  -0.0883883  -0.0883883   0.1944544), wk =   0.0015000
        k(  218) = (  -0.0530330  -0.0530330   0.1590990), wk =   0.0015000
        k(  219) = (   0.1237437   0.0530330   0.0530330), wk =   0.0015000
        k(  220) = (   0.1590990   0.0883883   0.0176777), wk =   0.0030000
        k(  221) = (   0.1944544   0.1237437  -0.0176777), wk =   0.0030000
        k(  222) = (   0.2298097   0.1590990  -0.0530330), wk =   0.0030000
        k(  223) = (   0.2651650   0.1944544  -0.0883883), wk =   0.0030000
        k(  224) = (   0.3005204   0.2298097  -0.1237437), wk =   0.0030000
        k(  225) = (   0.3358757   0.2651650  -0.1590990), wk =   0.0030000
        k(  226) = (   0.3712311   0.3005204  -0.1944544), wk =   0.0030000
        k(  227) = (  -0.3005204  -0.3712311   0.4772971), wk =   0.0030000
        k(  228) = (  -0.2651650  -0.3358757   0.4419417), wk =   0.0030000
        k(  229) = (  -0.2298097  -0.3005204   0.4065864), wk =   0.0030000
        k(  230) = (  -0.1944544  -0.2651650   0.3712311), wk =   0.0030000
        k(  231) = (  -0.1590990  -0.2298097   0.3358757), wk =   0.0030000
        k(  232) = (  -0.1237437  -0.1944544   0.3005204), wk =   0.0030000
        k(  233) = (  -0.0883883  -0.1590990   0.2651650), wk =   0.0030000
        k(  234) = (  -0.0530330  -0.1237437   0.2298097), wk =   0.0030000
        k(  235) = (  -0.0176777  -0.0883883   0.1944544), wk =   0.0030000
        k(  236) = (   0.1944544   0.0530330   0.0530330), wk =   0.0015000
        k(  237) = (   0.2298097   0.0883883   0.0176777), wk =   0.0030000
        k(  238) = (   0.2651650   0.1237437  -0.0176777), wk =   0.0030000
        k(  239) = (   0.3005204   0.1590990  -0.0530330), wk =   0.0030000
        k(  240) = (   0.3358757   0.1944544  -0.0883883), wk =   0.0030000
        k(  241) = (   0.3712311   0.2298097  -0.1237437), wk =   0.0030000
        k(  242) = (   0.4065864   0.2651650  -0.1590990), wk =   0.0030000
        k(  243) = (  -0.2651650  -0.4065864   0.5126524), wk =   0.0030000
        k(  244) = (  -0.2298097  -0.3712311   0.4772971), wk =   0.0030000
        k(  245) = (  -0.1944544  -0.3358757   0.4419417), wk =   0.0030000
        k(  246) = (  -0.1590990  -0.3005204   0.4065864), wk =   0.0030000
        k(  247) = (  -0.1237437  -0.2651650   0.3712311), wk =   0.0030000
        k(  248) = (  -0.0883883  -0.2298097   0.3358757), wk =   0.0030000
        k(  249) = (  -0.0530330  -0.1944544   0.3005204), wk =   0.0030000
        k(  250) = (  -0.0176777  -0.1590990   0.2651650), wk =   0.0030000
        k(  251) = (   0.0176777  -0.1237437   0.2298097), wk =   0.0030000
        k(  252) = (   0.2651650   0.0530330   0.0530330), wk =   0.0015000
        k(  253) = (   0.3005204   0.0883883   0.0176777), wk =   0.0030000
        k(  254) = (   0.3358757   0.1237437  -0.0176777), wk =   0.0030000
        k(  255) = (   0.3712311   0.1590990  -0.0530330), wk =   0.0030000
        k(  256) = (   0.4065864   0.1944544  -0.0883883), wk =   0.0030000
        k(  257) = (   0.4419417   0.2298097  -0.1237437), wk =   0.0030000
        k(  258) = (  -0.2298097  -0.4419417   0.5480078), wk =   0.0030000
        k(  259) = (  -0.1944544  -0.4065864   0.5126524), wk =   0.0030000
        k(  260) = (  -0.1590990  -0.3712311   0.4772971), wk =   0.0030000
        k(  261) = (  -0.1237437  -0.3358757   0.4419417), wk =   0.0030000
        k(  262) = (  -0.0883883  -0.3005204   0.4065864), wk =   0.0030000
        k(  263) = (  -0.0530330  -0.2651650   0.3712311), wk =   0.0030000
        k(  264) = (  -0.0176777  -0.2298097   0.3358757), wk =   0.0030000
        k(  265) = (   0.0176777  -0.1944544   0.3005204), wk =   0.0030000
        k(  266) = (   0.0530330  -0.1590990   0.2651650), wk =   0.0030000
        k(  267) = (   0.3358757   0.0530330   0.0530330), wk =   0.0015000
        k(  268) = (   0.3712311   0.0883883   0.0176777), wk =   0.0030000
        k(  269) = (   0.4065864   0.1237437  -0.0176777), wk =   0.0030000
        k(  270) = (   0.4419417   0.1590990  -0.0530330), wk =   0.0030000
        k(  271) = (   0.4772971   0.1944544  -0.0883883), wk =   0.0030000
        k(  272) = (  -0.1944544  -0.4772971   0.5833631), wk =   0.0030000
        k(  273) = (  -0.1590990  -0.4419417   0.5480078), wk =   0.0030000
        k(  274) = (  -0.1237437  -0.4065864   0.5126524), wk =   0.0030000
        k(  275) = (  -0.0883883  -0.3712311   0.4772971), wk =   0.0030000
        k(  276) = (  -0.0530330  -0.3358757   0.4419417), wk =   0.0030000
        k(  277) = (  -0.0176777  -0.3005204   0.4065864), wk =   0.0030000
        k(  278) = (   0.0176777  -0.2651650   0.3712311), wk =   0.0030000
        k(  279) = (   0.0530330  -0.2298097   0.3358757), wk =   0.0030000
        k(  280) = (   0.0883883  -0.1944544   0.3005204), wk =   0.0030000
        k(  281) = (   0.4065864   0.0530330   0.0530330), wk =   0.0015000
        k(  282) = (   0.4419417   0.0883883   0.0176777), wk =   0.0030000
        k(  283) = (   0.4772971   0.1237437  -0.0176777), wk =   0.0030000
        k(  284) = (   0.5126524   0.1590990  -0.0530330), wk =   0.0030000
        k(  285) = (  -0.1590990  -0.5126524   0.6187184), wk =   0.0030000
        k(  286) = (  -0.1237437  -0.4772971   0.5833631), wk =   0.0030000
        k(  287) = (  -0.0883883  -0.4419417   0.5480078), wk =   0.0030000
        k(  288) = (  -0.0530330  -0.4065864   0.5126524), wk =   0.0030000
        k(  289) = (  -0.0176777  -0.3712311   0.4772971), wk =   0.0030000
        k(  290) = (   0.0176777  -0.3358757   0.4419417), wk =   0.0030000
        k(  291) = (   0.0530330  -0.3005204   0.4065864), wk =   0.0030000
        k(  292) = (   0.0883883  -0.2651650   0.3712311), wk =   0.0030000
        k(  293) = (   0.1237437  -0.2298097   0.3358757), wk =   0.0030000
        k(  294) = (   0.4772971   0.0530330   0.0530330), wk =   0.0015000
        k(  295) = (   0.5126524   0.0883883   0.0176777), wk =   0.0030000
        k(  296) = (   0.5480078   0.1237437  -0.0176777), wk =   0.0030000
        k(  297) = (  -0.1237437  -0.5480078   0.6540738), wk =   0.0030000
        k(  298) = (  -0.0883883  -0.5126524   0.6187184), wk =   0.0030000
        k(  299) = (  -0.0530330  -0.4772971   0.5833631), wk =   0.0030000
        k(  300) = (  -0.0176777  -0.4419417   0.5480078), wk =   0.0030000
        k(  301) = (   0.0176777  -0.4065864   0.5126524), wk =   0.0030000
        k(  302) = (   0.0530330  -0.3712311   0.4772971), wk =   0.0030000
        k(  303) = (   0.0883883  -0.3358757   0.4419417), wk =   0.0030000
        k(  304) = (   0.1237437  -0.3005204   0.4065864), wk =   0.0030000
        k(  305) = (   0.1590990  -0.2651650   0.3712311), wk =   0.0030000
        k(  306) = (   0.5480078   0.0530330   0.0530330), wk =   0.0015000
        k(  307) = (   0.5833631   0.0883883   0.0176777), wk =   0.0030000
        k(  308) = (  -0.0883883  -0.5833631   0.6894291), wk =   0.0030000
        k(  309) = (  -0.0530330  -0.5480078   0.6540738), wk =   0.0030000
        k(  310) = (  -0.0176777  -0.5126524   0.6187184), wk =   0.0030000
        k(  311) = (   0.0176777  -0.4772971   0.5833631), wk =   0.0030000
        k(  312) = (   0.0530330  -0.4419417   0.5480078), wk =   0.0030000
        k(  313) = (   0.0883883  -0.4065864   0.5126524), wk =   0.0030000
        k(  314) = (   0.1237437  -0.3712311   0.4772971), wk =   0.0030000
        k(  315) = (   0.1590990  -0.3358757   0.4419417), wk =   0.0030000
        k(  316) = (   0.1944544  -0.3005204   0.4065864), wk =   0.0030000
        k(  317) = (   0.6187184   0.0530330   0.0530330), wk =   0.0015000
        k(  318) = (  -0.0530330  -0.6187184   0.7247845), wk =   0.0030000
        k(  319) = (  -0.0176777  -0.5833631   0.6894291), wk =   0.0030000
        k(  320) = (   0.0176777  -0.5480078   0.6540738), wk =   0.0030000
        k(  321) = (   0.0530330  -0.5126524   0.6187184), wk =   0.0030000
        k(  322) = (   0.0883883  -0.4772971   0.5833631), wk =   0.0030000
        k(  323) = (   0.1237437  -0.4419417   0.5480078), wk =   0.0030000
        k(  324) = (   0.1590990  -0.4065864   0.5126524), wk =   0.0030000
        k(  325) = (   0.1944544  -0.3712311   0.4772971), wk =   0.0030000
        k(  326) = (   0.2298097  -0.3358757   0.4419417), wk =   0.0030000
        k(  327) = (  -0.7247845   0.0530330   0.0530330), wk =   0.0015000
        k(  328) = (  -0.6894291   0.0883883   0.0176777), wk =   0.0030000
        k(  329) = (  -0.6540738   0.1237437  -0.0176777), wk =   0.0030000
        k(  330) = (  -0.6187184   0.1590990  -0.0530330), wk =   0.0030000
        k(  331) = (  -0.5833631   0.1944544  -0.0883883), wk =   0.0030000
        k(  332) = (  -0.5480078   0.2298097  -0.1237437), wk =   0.0030000
        k(  333) = (  -0.5126524   0.2651650  -0.1590990), wk =   0.0030000
        k(  334) = (  -0.4772971   0.3005204  -0.1944544), wk =   0.0030000
        k(  335) = (  -0.6540738   0.0530330   0.0530330), wk =   0.0015000
        k(  336) = (  -0.6187184   0.0883883   0.0176777), wk =   0.0030000
        k(  337) = (  -0.5833631   0.1237437  -0.0176777), wk =   0.0030000
        k(  338) = (  -0.5480078   0.1590990  -0.0530330), wk =   0.0030000
        k(  339) = (  -0.5126524   0.1944544  -0.0883883), wk =   0.0030000
        k(  340) = (  -0.4772971   0.2298097  -0.1237437), wk =   0.0030000
        k(  341) = (  -0.4419417   0.2651650  -0.1590990), wk =   0.0030000
        k(  342) = (  -0.5833631   0.0530330   0.0530330), wk =   0.0015000
        k(  343) = (  -0.5480078   0.0883883   0.0176777), wk =   0.0030000
        k(  344) = (  -0.5126524   0.1237437  -0.0176777), wk =   0.0030000
        k(  345) = (  -0.4772971   0.1590990  -0.0530330), wk =   0.0030000
        k(  346) = (  -0.4419417   0.1944544  -0.0883883), wk =   0.0030000
        k(  347) = (  -0.4065864   0.2298097  -0.1237437), wk =   0.0030000
        k(  348) = (  -0.5126524   0.0530330   0.0530330), wk =   0.0015000
        k(  349) = (  -0.4772971   0.0883883   0.0176777), wk =   0.0030000
        k(  350) = (  -0.4419417   0.1237437  -0.0176777), wk =   0.0030000
        k(  351) = (  -0.4065864   0.1590990  -0.0530330), wk =   0.0030000
        k(  352) = (  -0.3712311   0.1944544  -0.0883883), wk =   0.0030000
        k(  353) = (  -0.4419417   0.0530330   0.0530330), wk =   0.0015000
        k(  354) = (  -0.4065864   0.0883883   0.0176777), wk =   0.0030000
        k(  355) = (  -0.3712311   0.1237437  -0.0176777), wk =   0.0030000
        k(  356) = (  -0.3358757   0.1590990  -0.0530330), wk =   0.0030000
        k(  357) = (  -0.3712311   0.0530330   0.0530330), wk =   0.0015000
        k(  358) = (  -0.3358757   0.0883883   0.0176777), wk =   0.0030000
        k(  359) = (  -0.3005204   0.1237437  -0.0176777), wk =   0.0030000
        k(  360) = (  -0.3005204   0.0530330   0.0530330), wk =   0.0015000
        k(  361) = (  -0.2651650   0.0883883   0.0176777), wk =   0.0030000
        k(  362) = (  -0.2298097   0.0530330   0.0530330), wk =   0.0015000
        k(  363) = (   0.0883883   0.0883883   0.0883883), wk =   0.0005000
        k(  364) = (   0.1237437   0.1237437   0.0530330), wk =   0.0015000
        k(  365) = (   0.1590990   0.1590990   0.0176777), wk =   0.0015000
        k(  366) = (   0.1944544   0.1944544  -0.0176777), wk =   0.0015000
        k(  367) = (   0.2298097   0.2298097  -0.0530330), wk =   0.0015000
        k(  368) = (   0.2651650   0.2651650  -0.0883883), wk =   0.0015000
        k(  369) = (   0.3005204   0.3005204  -0.1237437), wk =   0.0015000
        k(  370) = (   0.3358757   0.3358757  -0.1590990), wk =   0.0015000
        k(  371) = (  -0.3358757  -0.3358757   0.5126524), wk =   0.0015000
        k(  372) = (  -0.3005204  -0.3005204   0.4772971), wk =   0.0015000
        k(  373) = (  -0.2651650  -0.2651650   0.4419417), wk =   0.0015000
        k(  374) = (  -0.2298097  -0.2298097   0.4065864), wk =   0.0015000
        k(  375) = (  -0.1944544  -0.1944544   0.3712311), wk =   0.0015000
        k(  376) = (  -0.1590990  -0.1590990   0.3358757), wk =   0.0015000
        k(  377) = (  -0.1237437  -0.1237437   0.3005204), wk =   0.0015000
        k(  378) = (  -0.0883883  -0.0883883   0.2651650), wk =   0.0015000
        k(  379) = (   0.1590990   0.0883883   0.0883883), wk =   0.0015000
        k(  380) = (   0.1944544   0.1237437   0.0530330), wk =   0.0030000
        k(  381) = (   0.2298097   0.1590990   0.0176777), wk =   0.0030000
        k(  382) = (   0.2651650   0.1944544  -0.0176777), wk =   0.0030000
        k(  383) = (   0.3005204   0.2298097  -0.0530330), wk =   0.0030000
        k(  384) = (   0.3358757   0.2651650  -0.0883883), wk =   0.0030000
        k(  385) = (   0.3712311   0.3005204  -0.1237437), wk =   0.0030000
        k(  386) = (  -0.3005204  -0.3712311   0.5480078), wk =   0.0030000
        k(  387) = (  -0.2651650  -0.3358757   0.5126524), wk =   0.0030000
        k(  388) = (  -0.2298097  -0.3005204   0.4772971), wk =   0.0030000
        k(  389) = (  -0.1944544  -0.2651650   0.4419417), wk =   0.0030000
        k(  390) = (  -0.1590990  -0.2298097   0.4065864), wk =   0.0030000
        k(  391) = (  -0.1237437  -0.1944544   0.3712311), wk =   0.0030000
        k(  392) = (  -0.0883883  -0.1590990   0.3358757), wk =   0.0030000
        k(  393) = (  -0.0530330  -0.1237437   0.3005204), wk =   0.0030000
        k(  394) = (   0.2298097   0.0883883   0.0883883), wk =   0.0015000
        k(  395) = (   0.2651650   0.1237437   0.0530330), wk =   0.0030000
        k(  396) = (   0.3005204   0.1590990   0.0176777), wk =   0.0030000
        k(  397) = (   0.3358757   0.1944544  -0.0176777), wk =   0.0030000
        k(  398) = (   0.3712311   0.2298097  -0.0530330), wk =   0.0030000
        k(  399) = (   0.4065864   0.2651650  -0.0883883), wk =   0.0030000
        k(  400) = (  -0.2651650  -0.4065864   0.5833631), wk =   0.0030000
        k(  401) = (  -0.2298097  -0.3712311   0.5480078), wk =   0.0030000
        k(  402) = (  -0.1944544  -0.3358757   0.5126524), wk =   0.0030000
        k(  403) = (  -0.1590990  -0.3005204   0.4772971), wk =   0.0030000
        k(  404) = (  -0.1237437  -0.2651650   0.4419417), wk =   0.0030000
        k(  405) = (  -0.0883883  -0.2298097   0.4065864), wk =   0.0030000
        k(  406) = (  -0.0530330  -0.1944544   0.3712311), wk =   0.0030000
        k(  407) = (  -0.0176777  -0.1590990   0.3358757), wk =   0.0030000
        k(  408) = (   0.3005204   0.0883883   0.0883883), wk =   0.0015000
        k(  409) = (   0.3358757   0.1237437   0.0530330), wk =   0.0030000
        k(  410) = (   0.3712311   0.1590990   0.0176777), wk =   0.0030000
        k(  411) = (   0.4065864   0.1944544  -0.0176777), wk =   0.0030000
        k(  412) = (   0.4419417   0.2298097  -0.0530330), wk =   0.0030000
        k(  413) = (  -0.2298097  -0.4419417   0.6187184), wk =   0.0030000
        k(  414) = (  -0.1944544  -0.4065864   0.5833631), wk =   0.0030000
        k(  415) = (  -0.1590990  -0.3712311   0.5480078), wk =   0.0030000
        k(  416) = (  -0.1237437  -0.3358757   0.5126524), wk =   0.0030000
        k(  417) = (  -0.0883883  -0.3005204   0.4772971), wk =   0.0030000
        k(  418) = (  -0.0530330  -0.2651650   0.4419417), wk =   0.0030000
        k(  419) = (  -0.0176777  -0.2298097   0.4065864), wk =   0.0030000
        k(  420) = (   0.0176777  -0.1944544   0.3712311), wk =   0.0030000
        k(  421) = (   0.3712311   0.0883883   0.0883883), wk =   0.0015000
        k(  422) = (   0.4065864   0.1237437   0.0530330), wk =   0.0030000
        k(  423) = (   0.4419417   0.1590990   0.0176777), wk =   0.0030000
        k(  424) = (   0.4772971   0.1944544  -0.0176777), wk =   0.0030000
        k(  425) = (  -0.1944544  -0.4772971   0.6540738), wk =   0.0030000
        k(  426) = (  -0.1590990  -0.4419417   0.6187184), wk =   0.0030000
        k(  427) = (  -0.1237437  -0.4065864   0.5833631), wk =   0.0030000
        k(  428) = (  -0.0883883  -0.3712311   0.5480078), wk =   0.0030000
        k(  429) = (  -0.0530330  -0.3358757   0.5126524), wk =   0.0030000
        k(  430) = (  -0.0176777  -0.3005204   0.4772971), wk =   0.0030000
        k(  431) = (   0.0176777  -0.2651650   0.4419417), wk =   0.0030000
        k(  432) = (   0.0530330  -0.2298097   0.4065864), wk =   0.0030000
        k(  433) = (   0.4419417   0.0883883   0.0883883), wk =   0.0015000
        k(  434) = (   0.4772971   0.1237437   0.0530330), wk =   0.0030000
        k(  435) = (   0.5126524   0.1590990   0.0176777), wk =   0.0030000
        k(  436) = (  -0.1590990  -0.5126524   0.6894291), wk =   0.0030000
        k(  437) = (  -0.1237437  -0.4772971   0.6540738), wk =   0.0030000
        k(  438) = (  -0.0883883  -0.4419417   0.6187184), wk =   0.0030000
        k(  439) = (  -0.0530330  -0.4065864   0.5833631), wk =   0.0030000
        k(  440) = (  -0.0176777  -0.3712311   0.5480078), wk =   0.0030000
        k(  441) = (   0.0176777  -0.3358757   0.5126524), wk =   0.0030000
        k(  442) = (   0.0530330  -0.3005204   0.4772971), wk =   0.0030000
        k(  443) = (   0.0883883  -0.2651650   0.4419417), wk =   0.0030000
        k(  444) = (   0.5126524   0.0883883   0.0883883), wk =   0.0015000
        k(  445) = (   0.5480078   0.1237437   0.0530330), wk =   0.0030000
        k(  446) = (  -0.1237437  -0.5480078   0.7247845), wk =   0.0030000
        k(  447) = (  -0.0883883  -0.5126524   0.6894291), wk =   0.0030000
        k(  448) = (  -0.0530330  -0.4772971   0.6540738), wk =   0.0030000
        k(  449) = (  -0.0176777  -0.4419417   0.6187184), wk =   0.0030000
        k(  450) = (   0.0176777  -0.4065864   0.5833631), wk =   0.0030000
        k(  451) = (   0.0530330  -0.3712311   0.5480078), wk =   0.0030000
        k(  452) = (   0.0883883  -0.3358757   0.5126524), wk =   0.0030000
        k(  453) = (   0.1237437  -0.3005204   0.4772971), wk =   0.0030000
        k(  454) = (   0.5833631   0.0883883   0.0883883), wk =   0.0015000
        k(  455) = (  -0.0883883  -0.5833631   0.7601398), wk =   0.0030000
        k(  456) = (  -0.0530330  -0.5480078   0.7247845), wk =   0.0030000
        k(  457) = (  -0.0176777  -0.5126524   0.6894291), wk =   0.0030000
        k(  458) = (   0.0176777  -0.4772971   0.6540738), wk =   0.0030000
        k(  459) = (   0.0530330  -0.4419417   0.6187184), wk =   0.0030000
        k(  460) = (   0.0883883  -0.4065864   0.5833631), wk =   0.0030000
        k(  461) = (   0.1237437  -0.3712311   0.5480078), wk =   0.0030000
        k(  462) = (   0.1590990  -0.3358757   0.5126524), wk =   0.0030000
        k(  463) = (  -0.7601398   0.0883883   0.0883883), wk =   0.0015000
        k(  464) = (  -0.7247845   0.1237437   0.0530330), wk =   0.0030000
        k(  465) = (  -0.6894291   0.1590990   0.0176777), wk =   0.0030000
        k(  466) = (  -0.6540738   0.1944544  -0.0176777), wk =   0.0030000
        k(  467) = (  -0.6187184   0.2298097  -0.0530330), wk =   0.0030000
        k(  468) = (  -0.5833631   0.2651650  -0.0883883), wk =   0.0030000
        k(  469) = (  -0.5480078   0.3005204  -0.1237437), wk =   0.0030000
        k(  470) = (  -0.6894291   0.0883883   0.0883883), wk =   0.0015000
        k(  471) = (  -0.6540738   0.1237437   0.0530330), wk =   0.0030000
        k(  472) = (  -0.6187184   0.1590990   0.0176777), wk =   0.0030000
        k(  473) = (  -0.5833631   0.1944544  -0.0176777), wk =   0.0030000
        k(  474) = (  -0.5480078   0.2298097  -0.0530330), wk =   0.0030000
        k(  475) = (  -0.5126524   0.2651650  -0.0883883), wk =   0.0030000
        k(  476) = (  -0.6187184   0.0883883   0.0883883), wk =   0.0015000
        k(  477) = (  -0.5833631   0.1237437   0.0530330), wk =   0.0030000
        k(  478) = (  -0.5480078   0.1590990   0.0176777), wk =   0.0030000
        k(  479) = (  -0.5126524   0.1944544  -0.0176777), wk =   0.0030000
        k(  480) = (  -0.4772971   0.2298097  -0.0530330), wk =   0.0030000
        k(  481) = (  -0.5480078   0.0883883   0.0883883), wk =   0.0015000
        k(  482) = (  -0.5126524   0.1237437   0.0530330), wk =   0.0030000
        k(  483) = (  -0.4772971   0.1590990   0.0176777), wk =   0.0030000
        k(  484) = (  -0.4419417   0.1944544  -0.0176777), wk =   0.0030000
        k(  485) = (  -0.4772971   0.0883883   0.0883883), wk =   0.0015000
        k(  486) = (  -0.4419417   0.1237437   0.0530330), wk =   0.0030000
        k(  487) = (  -0.4065864   0.1590990   0.0176777), wk =   0.0030000
        k(  488) = (  -0.4065864   0.0883883   0.0883883), wk =   0.0015000
        k(  489) = (  -0.3712311   0.1237437   0.0530330), wk =   0.0030000
        k(  490) = (  -0.3358757   0.0883883   0.0883883), wk =   0.0015000
        k(  491) = (   0.1237437   0.1237437   0.1237437), wk =   0.0005000
        k(  492) = (   0.1590990   0.1590990   0.0883883), wk =   0.0015000
        k(  493) = (   0.1944544   0.1944544   0.0530330), wk =   0.0015000
        k(  494) = (   0.2298097   0.2298097   0.0176777), wk =   0.0015000
        k(  495) = (   0.2651650   0.2651650  -0.0176777), wk =   0.0015000
        k(  496) = (   0.3005204   0.3005204  -0.0530330), wk =   0.0015000
        k(  497) = (   0.3358757   0.3358757  -0.0883883), wk =   0.0015000
        k(  498) = (  -0.3358757  -0.3358757   0.5833631), wk =   0.0015000
        k(  499) = (  -0.3005204  -0.3005204   0.5480078), wk =   0.0015000
        k(  500) = (  -0.2651650  -0.2651650   0.5126524), wk =   0.0015000
        k(  501) = (  -0.2298097  -0.2298097   0.4772971), wk =   0.0015000
        k(  502) = (  -0.1944544  -0.1944544   0.4419417), wk =   0.0015000
        k(  503) = (  -0.1590990  -0.1590990   0.4065864), wk =   0.0015000
        k(  504) = (  -0.1237437  -0.1237437   0.3712311), wk =   0.0015000
        k(  505) = (   0.1944544   0.1237437   0.1237437), wk =   0.0015000
        k(  506) = (   0.2298097   0.1590990   0.0883883), wk =   0.0030000
        k(  507) = (   0.2651650   0.1944544   0.0530330), wk =   0.0030000
        k(  508) = (   0.3005204   0.2298097   0.0176777), wk =   0.0030000
        k(  509) = (   0.3358757   0.2651650  -0.0176777), wk =   0.0030000
        k(  510) = (   0.3712311   0.3005204  -0.0530330), wk =   0.0030000
        k(  511) = (  -0.3005204  -0.3712311   0.6187184), wk =   0.0030000
        k(  512) = (  -0.2651650  -0.3358757   0.5833631), wk =   0.0030000
        k(  513) = (  -0.2298097  -0.3005204   0.5480078), wk =   0.0030000
        k(  514) = (  -0.1944544  -0.2651650   0.5126524), wk =   0.0030000
        k(  515) = (  -0.1590990  -0.2298097   0.4772971), wk =   0.0030000
        k(  516) = (  -0.1237437  -0.1944544   0.4419417), wk =   0.0030000
        k(  517) = (  -0.0883883  -0.1590990   0.4065864), wk =   0.0030000
        k(  518) = (   0.2651650   0.1237437   0.1237437), wk =   0.0015000
        k(  519) = (   0.3005204   0.1590990   0.0883883), wk =   0.0030000
        k(  520) = (   0.3358757   0.1944544   0.0530330), wk =   0.0030000
        k(  521) = (   0.3712311   0.2298097   0.0176777), wk =   0.0030000
        k(  522) = (   0.4065864   0.2651650  -0.0176777), wk =   0.0030000
        k(  523) = (  -0.2651650  -0.4065864   0.6540738), wk =   0.0030000
        k(  524) = (  -0.2298097  -0.3712311   0.6187184), wk =   0.0030000
        k(  525) = (  -0.1944544  -0.3358757   0.5833631), wk =   0.0030000
        k(  526) = (  -0.1590990  -0.3005204   0.5480078), wk =   0.0030000
        k(  527) = (  -0.1237437  -0.2651650   0.5126524), wk =   0.0030000
        k(  528) = (  -0.0883883  -0.2298097   0.4772971), wk =   0.0030000
        k(  529) = (  -0.0530330  -0.1944544   0.4419417), wk =   0.0030000
        k(  530) = (   0.3358757   0.1237437   0.1237437), wk =   0.0015000
        k(  531) = (   0.3712311   0.1590990   0.0883883), wk =   0.0030000
        k(  532) = (   0.4065864   0.1944544   0.0530330), wk =   0.0030000
        k(  533) = (   0.4419417   0.2298097   0.0176777), wk =   0.0030000
        k(  534) = (  -0.2298097  -0.4419417   0.6894291), wk =   0.0030000
        k(  535) = (  -0.1944544  -0.4065864   0.6540738), wk =   0.0030000
        k(  536) = (  -0.1590990  -0.3712311   0.6187184), wk =   0.0030000
        k(  537) = (  -0.1237437  -0.3358757   0.5833631), wk =   0.0030000
        k(  538) = (  -0.0883883  -0.3005204   0.5480078), wk =   0.0030000
        k(  539) = (  -0.0530330  -0.2651650   0.5126524), wk =   0.0030000
        k(  540) = (  -0.0176777  -0.2298097   0.4772971), wk =   0.0030000
        k(  541) = (   0.4065864   0.1237437   0.1237437), wk =   0.0015000
        k(  542) = (   0.4419417   0.1590990   0.0883883), wk =   0.0030000
        k(  543) = (   0.4772971   0.1944544   0.0530330), wk =   0.0030000
        k(  544) = (  -0.1944544  -0.4772971   0.7247845), wk =   0.0030000
        k(  545) = (  -0.1590990  -0.4419417   0.6894291), wk =   0.0030000
        k(  546) = (  -0.1237437  -0.4065864   0.6540738), wk =   0.0030000
        k(  547) = (  -0.0883883  -0.3712311   0.6187184), wk =   0.0030000
        k(  548) = (  -0.0530330  -0.3358757   0.5833631), wk =   0.0030000
        k(  549) = (  -0.0176777  -0.3005204   0.5480078), wk =   0.0030000
        k(  550) = (   0.0176777  -0.2651650   0.5126524), wk =   0.0030000
        k(  551) = (   0.4772971   0.1237437   0.1237437), wk =   0.0015000
        k(  552) = (   0.5126524   0.1590990   0.0883883), wk =   0.0030000
        k(  553) = (  -0.1590990  -0.5126524   0.7601398), wk =   0.0030000
        k(  554) = (  -0.1237437  -0.4772971   0.7247845), wk =   0.0030000
        k(  555) = (  -0.0883883  -0.4419417   0.6894291), wk =   0.0030000
        k(  556) = (  -0.0530330  -0.4065864   0.6540738), wk =   0.0030000
        k(  557) = (  -0.0176777  -0.3712311   0.6187184), wk =   0.0030000
        k(  558) = (   0.0176777  -0.3358757   0.5833631), wk =   0.0030000
        k(  559) = (   0.0530330  -0.3005204   0.5480078), wk =   0.0030000
        k(  560) = (   0.5480078   0.1237437   0.1237437), wk =   0.0015000
        k(  561) = (  -0.1237437  -0.5480078   0.7954951), wk =   0.0030000
        k(  562) = (  -0.0883883  -0.5126524   0.7601398), wk =   0.0030000
        k(  563) = (  -0.0530330  -0.4772971   0.7247845), wk =   0.0030000
        k(  564) = (  -0.0176777  -0.4419417   0.6894291), wk =   0.0030000
        k(  565) = (   0.0176777  -0.4065864   0.6540738), wk =   0.0030000
        k(  566) = (   0.0530330  -0.3712311   0.6187184), wk =   0.0030000
        k(  567) = (   0.0883883  -0.3358757   0.5833631), wk =   0.0030000
        k(  568) = (  -0.7954951   0.1237437   0.1237437), wk =   0.0015000
        k(  569) = (  -0.7601398   0.1590990   0.0883883), wk =   0.0030000
        k(  570) = (  -0.7247845   0.1944544   0.0530330), wk =   0.0030000
        k(  571) = (  -0.6894291   0.2298097   0.0176777), wk =   0.0030000
        k(  572) = (  -0.6540738   0.2651650  -0.0176777), wk =   0.0030000
        k(  573) = (  -0.6187184   0.3005204  -0.0530330), wk =   0.0030000
        k(  574) = (  -0.7247845   0.1237437   0.1237437), wk =   0.0015000
        k(  575) = (  -0.6894291   0.1590990   0.0883883), wk =   0.0030000
        k(  576) = (  -0.6540738   0.1944544   0.0530330), wk =   0.0030000
        k(  577) = (  -0.6187184   0.2298097   0.0176777), wk =   0.0030000
        k(  578) = (  -0.5833631   0.2651650  -0.0176777), wk =   0.0030000
        k(  579) = (  -0.6540738   0.1237437   0.1237437), wk =   0.0015000
        k(  580) = (  -0.6187184   0.1590990   0.0883883), wk =   0.0030000
        k(  581) = (  -0.5833631   0.1944544   0.0530330), wk =   0.0030000
        k(  582) = (  -0.5480078   0.2298097   0.0176777), wk =   0.0030000
        k(  583) = (  -0.5833631   0.1237437   0.1237437), wk =   0.0015000
        k(  584) = (  -0.5480078   0.1590990   0.0883883), wk =   0.0030000
        k(  585) = (  -0.5126524   0.1944544   0.0530330), wk =   0.0030000
        k(  586) = (  -0.5126524   0.1237437   0.1237437), wk =   0.0015000
        k(  587) = (  -0.4772971   0.1590990   0.0883883), wk =   0.0030000
        k(  588) = (  -0.4419417   0.1237437   0.1237437), wk =   0.0015000
        k(  589) = (   0.1590990   0.1590990   0.1590990), wk =   0.0005000
        k(  590) = (   0.1944544   0.1944544   0.1237437), wk =   0.0015000
        k(  591) = (   0.2298097   0.2298097   0.0883883), wk =   0.0015000
        k(  592) = (   0.2651650   0.2651650   0.0530330), wk =   0.0015000
        k(  593) = (   0.3005204   0.3005204   0.0176777), wk =   0.0015000
        k(  594) = (   0.3358757   0.3358757  -0.0176777), wk =   0.0015000
        k(  595) = (  -0.3358757  -0.3358757   0.6540738), wk =   0.0015000
        k(  596) = (  -0.3005204  -0.3005204   0.6187184), wk =   0.0015000
        k(  597) = (  -0.2651650  -0.2651650   0.5833631), wk =   0.0015000
        k(  598) = (  -0.2298097  -0.2298097   0.5480078), wk =   0.0015000
        k(  599) = (  -0.1944544  -0.1944544   0.5126524), wk =   0.0015000
        k(  600) = (  -0.1590990  -0.1590990   0.4772971), wk =   0.0015000
        k(  601) = (   0.2298097   0.1590990   0.1590990), wk =   0.0015000
        k(  602) = (   0.2651650   0.1944544   0.1237437), wk =   0.0030000
        k(  603) = (   0.3005204   0.2298097   0.0883883), wk =   0.0030000
        k(  604) = (   0.3358757   0.2651650   0.0530330), wk =   0.0030000
        k(  605) = (   0.3712311   0.3005204   0.0176777), wk =   0.0030000
        k(  606) = (  -0.3005204  -0.3712311   0.6894291), wk =   0.0030000
        k(  607) = (  -0.2651650  -0.3358757   0.6540738), wk =   0.0030000
        k(  608) = (  -0.2298097  -0.3005204   0.6187184), wk =   0.0030000
        k(  609) = (  -0.1944544  -0.2651650   0.5833631), wk =   0.0030000
        k(  610) = (  -0.1590990  -0.2298097   0.5480078), wk =   0.0030000
        k(  611) = (  -0.1237437  -0.1944544   0.5126524), wk =   0.0030000
        k(  612) = (   0.3005204   0.1590990   0.1590990), wk =   0.0015000
        k(  613) = (   0.3358757   0.1944544   0.1237437), wk =   0.0030000
        k(  614) = (   0.3712311   0.2298097   0.0883883), wk =   0.0030000
        k(  615) = (   0.4065864   0.2651650   0.0530330), wk =   0.0030000
        k(  616) = (  -0.2651650  -0.4065864   0.7247845), wk =   0.0030000
        k(  617) = (  -0.2298097  -0.3712311   0.6894291), wk =   0.0030000
        k(  618) = (  -0.1944544  -0.3358757   0.6540738), wk =   0.0030000
        k(  619) = (  -0.1590990  -0.3005204   0.6187184), wk =   0.0030000
        k(  620) = (  -0.1237437  -0.2651650   0.5833631), wk =   0.0030000
        k(  621) = (  -0.0883883  -0.2298097   0.5480078), wk =   0.0030000
        k(  622) = (   0.3712311   0.1590990   0.1590990), wk =   0.0015000
        k(  623) = (   0.4065864   0.1944544   0.1237437), wk =   0.0030000
        k(  624) = (   0.4419417   0.2298097   0.0883883), wk =   0.0030000
        k(  625) = (  -0.2298097  -0.4419417   0.7601398), wk =   0.0030000
        k(  626) = (  -0.1944544  -0.4065864   0.7247845), wk =   0.0030000
        k(  627) = (  -0.1590990  -0.3712311   0.6894291), wk =   0.0030000
        k(  628) = (  -0.1237437  -0.3358757   0.6540738), wk =   0.0030000
        k(  629) = (  -0.0883883  -0.3005204   0.6187184), wk =   0.0030000
        k(  630) = (  -0.0530330  -0.2651650   0.5833631), wk =   0.0030000
        k(  631) = (   0.4419417   0.1590990   0.1590990), wk =   0.0015000
        k(  632) = (   0.4772971   0.1944544   0.1237437), wk =   0.0030000
        k(  633) = (  -0.1944544  -0.4772971   0.7954951), wk =   0.0030000
        k(  634) = (  -0.1590990  -0.4419417   0.7601398), wk =   0.0030000
        k(  635) = (  -0.1237437  -0.4065864   0.7247845), wk =   0.0030000
        k(  636) = (  -0.0883883  -0.3712311   0.6894291), wk =   0.0030000
        k(  637) = (  -0.0530330  -0.3358757   0.6540738), wk =   0.0030000
        k(  638) = (  -0.0176777  -0.3005204   0.6187184), wk =   0.0030000
        k(  639) = (   0.5126524   0.1590990   0.1590990), wk =   0.0015000
        k(  640) = (  -0.1590990  -0.5126524   0.8308505), wk =   0.0030000
        k(  641) = (  -0.1237437  -0.4772971   0.7954951), wk =   0.0030000
        k(  642) = (  -0.0883883  -0.4419417   0.7601398), wk =   0.0030000
        k(  643) = (  -0.0530330  -0.4065864   0.7247845), wk =   0.0030000
        k(  644) = (  -0.0176777  -0.3712311   0.6894291), wk =   0.0030000
        k(  645) = (   0.0176777  -0.3358757   0.6540738), wk =   0.0030000
        k(  646) = (  -0.8308505   0.1590990   0.1590990), wk =   0.0015000
        k(  647) = (  -0.7954951   0.1944544   0.1237437), wk =   0.0030000
        k(  648) = (  -0.7601398   0.2298097   0.0883883), wk =   0.0030000
        k(  649) = (  -0.7247845   0.2651650   0.0530330), wk =   0.0030000
        k(  650) = (  -0.6894291   0.3005204   0.0176777), wk =   0.0030000
        k(  651) = (  -0.7601398   0.1590990   0.1590990), wk =   0.0015000
        k(  652) = (  -0.7247845   0.1944544   0.1237437), wk =   0.0030000
        k(  653) = (  -0.6894291   0.2298097   0.0883883), wk =   0.0030000
        k(  654) = (  -0.6540738   0.2651650   0.0530330), wk =   0.0030000
        k(  655) = (  -0.6894291   0.1590990   0.1590990), wk =   0.0015000
        k(  656) = (  -0.6540738   0.1944544   0.1237437), wk =   0.0030000
        k(  657) = (  -0.6187184   0.2298097   0.0883883), wk =   0.0030000
        k(  658) = (  -0.6187184   0.1590990   0.1590990), wk =   0.0015000
        k(  659) = (  -0.5833631   0.1944544   0.1237437), wk =   0.0030000
        k(  660) = (  -0.5480078   0.1590990   0.1590990), wk =   0.0015000
        k(  661) = (   0.1944544   0.1944544   0.1944544), wk =   0.0005000
        k(  662) = (   0.2298097   0.2298097   0.1590990), wk =   0.0015000
        k(  663) = (   0.2651650   0.2651650   0.1237437), wk =   0.0015000
        k(  664) = (   0.3005204   0.3005204   0.0883883), wk =   0.0015000
        k(  665) = (   0.3358757   0.3358757   0.0530330), wk =   0.0015000
        k(  666) = (  -0.3358757  -0.3358757   0.7247845), wk =   0.0015000
        k(  667) = (  -0.3005204  -0.3005204   0.6894291), wk =   0.0015000
        k(  668) = (  -0.2651650  -0.2651650   0.6540738), wk =   0.0015000
        k(  669) = (  -0.2298097  -0.2298097   0.6187184), wk =   0.0015000
        k(  670) = (  -0.1944544  -0.1944544   0.5833631), wk =   0.0015000
        k(  671) = (   0.2651650   0.1944544   0.1944544), wk =   0.0015000
        k(  672) = (   0.3005204   0.2298097   0.1590990), wk =   0.0030000
        k(  673) = (   0.3358757   0.2651650   0.1237437), wk =   0.0030000
        k(  674) = (   0.3712311   0.3005204   0.0883883), wk =   0.0030000
        k(  675) = (  -0.3005204  -0.3712311   0.7601398), wk =   0.0030000
        k(  676) = (  -0.2651650  -0.3358757   0.7247845), wk =   0.0030000
        k(  677) = (  -0.2298097  -0.3005204   0.6894291), wk =   0.0030000
        k(  678) = (  -0.1944544  -0.2651650   0.6540738), wk =   0.0030000
        k(  679) = (  -0.1590990  -0.2298097   0.6187184), wk =   0.0030000
        k(  680) = (   0.3358757   0.1944544   0.1944544), wk =   0.0015000
        k(  681) = (   0.3712311   0.2298097   0.1590990), wk =   0.0030000
        k(  682) = (   0.4065864   0.2651650   0.1237437), wk =   0.0030000
        k(  683) = (  -0.2651650  -0.4065864   0.7954951), wk =   0.0030000
        k(  684) = (  -0.2298097  -0.3712311   0.7601398), wk =   0.0030000
        k(  685) = (  -0.1944544  -0.3358757   0.7247845), wk =   0.0030000
        k(  686) = (  -0.1590990  -0.3005204   0.6894291), wk =   0.0030000
        k(  687) = (  -0.1237437  -0.2651650   0.6540738), wk =   0.0030000
        k(  688) = (   0.4065864   0.1944544   0.1944544), wk =   0.0015000
        k(  689) = (   0.4419417   0.2298097   0.1590990), wk =   0.0030000
        k(  690) = (  -0.2298097  -0.4419417   0.8308505), wk =   0.0030000
        k(  691) = (  -0.1944544  -0.4065864   0.7954951), wk =   0.0030000
        k(  692) = (  -0.1590990  -0.3712311   0.7601398), wk =   0.0030000
        k(  693) = (  -0.1237437  -0.3358757   0.7247845), wk =   0.0030000
        k(  694) = (  -0.0883883  -0.3005204   0.6894291), wk =   0.0030000
        k(  695) = (   0.4772971   0.1944544   0.1944544), wk =   0.0015000
        k(  696) = (  -0.1944544  -0.4772971   0.8662058), wk =   0.0030000
        k(  697) = (  -0.1590990  -0.4419417   0.8308505), wk =   0.0030000
        k(  698) = (  -0.1237437  -0.4065864   0.7954951), wk =   0.0030000
        k(  699) = (  -0.0883883  -0.3712311   0.7601398), wk =   0.0030000
        k(  700) = (  -0.0530330  -0.3358757   0.7247845), wk =   0.0030000
        k(  701) = (  -0.8662058   0.1944544   0.1944544), wk =   0.0015000
        k(  702) = (  -0.8308505   0.2298097   0.1590990), wk =   0.0030000
        k(  703) = (  -0.7954951   0.2651650   0.1237437), wk =   0.0030000
        k(  704) = (  -0.7601398   0.3005204   0.0883883), wk =   0.0030000
        k(  705) = (  -0.7954951   0.1944544   0.1944544), wk =   0.0015000
        k(  706) = (  -0.7601398   0.2298097   0.1590990), wk =   0.0030000
        k(  707) = (  -0.7247845   0.2651650   0.1237437), wk =   0.0030000
        k(  708) = (  -0.7247845   0.1944544   0.1944544), wk =   0.0015000
        k(  709) = (  -0.6894291   0.2298097   0.1590990), wk =   0.0030000
        k(  710) = (  -0.6540738   0.1944544   0.1944544), wk =   0.0015000
        k(  711) = (   0.2298097   0.2298097   0.2298097), wk =   0.0005000
        k(  712) = (   0.2651650   0.2651650   0.1944544), wk =   0.0015000
        k(  713) = (   0.3005204   0.3005204   0.1590990), wk =   0.0015000
        k(  714) = (   0.3358757   0.3358757   0.1237437), wk =   0.0015000
        k(  715) = (  -0.3358757  -0.3358757   0.7954951), wk =   0.0015000
        k(  716) = (  -0.3005204  -0.3005204   0.7601398), wk =   0.0015000
        k(  717) = (  -0.2651650  -0.2651650   0.7247845), wk =   0.0015000
        k(  718) = (  -0.2298097  -0.2298097   0.6894291), wk =   0.0015000
        k(  719) = (   0.3005204   0.2298097   0.2298097), wk =   0.0015000
        k(  720) = (   0.3358757   0.2651650   0.1944544), wk =   0.0030000
        k(  721) = (   0.3712311   0.3005204   0.1590990), wk =   0.0030000
        k(  722) = (  -0.3005204  -0.3712311   0.8308505), wk =   0.0030000
        k(  723) = (  -0.2651650  -0.3358757   0.7954951), wk =   0.0030000
        k(  724) = (  -0.2298097  -0.3005204   0.7601398), wk =   0.0030000
        k(  725) = (  -0.1944544  -0.2651650   0.7247845), wk =   0.0030000
        k(  726) = (   0.3712311   0.2298097   0.2298097), wk =   0.0015000
        k(  727) = (   0.4065864   0.2651650   0.1944544), wk =   0.0030000
        k(  728) = (  -0.2651650  -0.4065864   0.8662058), wk =   0.0030000
        k(  729) = (  -0.2298097  -0.3712311   0.8308505), wk =   0.0030000
        k(  730) = (  -0.1944544  -0.3358757   0.7954951), wk =   0.0030000
        k(  731) = (  -0.1590990  -0.3005204   0.7601398), wk =   0.0030000
        k(  732) = (   0.4419417   0.2298097   0.2298097), wk =   0.0015000
        k(  733) = (  -0.2298097  -0.4419417   0.9015611), wk =   0.0030000
        k(  734) = (  -0.1944544  -0.4065864   0.8662058), wk =   0.0030000
        k(  735) = (  -0.1590990  -0.3712311   0.8308505), wk =   0.0030000
        k(  736) = (  -0.1237437  -0.3358757   0.7954951), wk =   0.0030000
        k(  737) = (  -0.9015611   0.2298097   0.2298097), wk =   0.0015000
        k(  738) = (  -0.8662058   0.2651650   0.1944544), wk =   0.0030000
        k(  739) = (  -0.8308505   0.3005204   0.1590990), wk =   0.0030000
        k(  740) = (  -0.8308505   0.2298097   0.2298097), wk =   0.0015000
        k(  741) = (  -0.7954951   0.2651650   0.1944544), wk =   0.0030000
        k(  742) = (  -0.7601398   0.2298097   0.2298097), wk =   0.0015000
        k(  743) = (   0.2651650   0.2651650   0.2651650), wk =   0.0005000
        k(  744) = (   0.3005204   0.3005204   0.2298097), wk =   0.0015000
        k(  745) = (   0.3358757   0.3358757   0.1944544), wk =   0.0015000
        k(  746) = (  -0.3358757  -0.3358757   0.8662058), wk =   0.0015000
        k(  747) = (  -0.3005204  -0.3005204   0.8308505), wk =   0.0015000
        k(  748) = (  -0.2651650  -0.2651650   0.7954951), wk =   0.0015000
        k(  749) = (   0.3358757   0.2651650   0.2651650), wk =   0.0015000
        k(  750) = (   0.3712311   0.3005204   0.2298097), wk =   0.0030000
        k(  751) = (  -0.3005204  -0.3712311   0.9015611), wk =   0.0030000
        k(  752) = (  -0.2651650  -0.3358757   0.8662058), wk =   0.0030000
        k(  753) = (  -0.2298097  -0.3005204   0.8308505), wk =   0.0030000
        k(  754) = (   0.4065864   0.2651650   0.2651650), wk =   0.0015000
        k(  755) = (  -0.2651650  -0.4065864   0.9369165), wk =   0.0030000
        k(  756) = (  -0.2298097  -0.3712311   0.9015611), wk =   0.0030000
        k(  757) = (  -0.1944544  -0.3358757   0.8662058), wk =   0.0030000
        k(  758) = (  -0.9369165   0.2651650   0.2651650), wk =   0.0015000
        k(  759) = (  -0.9015611   0.3005204   0.2298097), wk =   0.0030000
        k(  760) = (  -0.8662058   0.2651650   0.2651650), wk =   0.0015000
        k(  761) = (   0.3005204   0.3005204   0.3005204), wk =   0.0005000
        k(  762) = (   0.3358757   0.3358757   0.2651650), wk =   0.0015000
        k(  763) = (  -0.3358757  -0.3358757   0.9369165), wk =   0.0015000
        k(  764) = (  -0.3005204  -0.3005204   0.9015611), wk =   0.0015000
        k(  765) = (   0.3712311   0.3005204   0.3005204), wk =   0.0015000
        k(  766) = (  -0.3005204  -0.3712311   0.9722718), wk =   0.0030000
        k(  767) = (  -0.2651650  -0.3358757   0.9369165), wk =   0.0030000
        k(  768) = (  -0.9722718   0.3005204   0.3005204), wk =   0.0015000
        k(  769) = (   0.3358757   0.3358757   0.3358757), wk =   0.0005000
        k(  770) = (  -0.3358757  -0.3358757   1.0076272), wk =   0.0015000

                       cryst. coord.
        k(    1) = (   0.0250000   0.0250000   0.0250000), wk =   0.0005000
        k(    2) = (   0.0250000   0.0250000   0.0750000), wk =   0.0015000
        k(    3) = (   0.0250000   0.0250000   0.1250000), wk =   0.0015000
        k(    4) = (   0.0250000   0.0250000   0.1750000), wk =   0.0015000
        k(    5) = (   0.0250000   0.0250000   0.2250000), wk =   0.0015000
        k(    6) = (   0.0250000   0.0250000   0.2750000), wk =   0.0015000
        k(    7) = (   0.0250000   0.0250000   0.3250000), wk =   0.0015000
        k(    8) = (   0.0250000   0.0250000   0.3750000), wk =   0.0015000
        k(    9) = (   0.0250000   0.0250000   0.4250000), wk =   0.0015000
        k(   10) = (   0.0250000   0.0250000   0.4750000), wk =   0.0015000
        k(   11) = (   0.0250000   0.0250000  -0.4750000), wk =   0.0015000
        k(   12) = (   0.0250000   0.0250000  -0.4250000), wk =   0.0015000
        k(   13) = (   0.0250000   0.0250000  -0.3750000), wk =   0.0015000
        k(   14) = (   0.0250000   0.0250000  -0.3250000), wk =   0.0015000
        k(   15) = (   0.0250000   0.0250000  -0.2750000), wk =   0.0015000
        k(   16) = (   0.0250000   0.0250000  -0.2250000), wk =   0.0015000
        k(   17) = (   0.0250000   0.0250000  -0.1750000), wk =   0.0015000
        k(   18) = (   0.0250000   0.0250000  -0.1250000), wk =   0.0015000
        k(   19) = (   0.0250000   0.0250000  -0.0750000), wk =   0.0015000
        k(   20) = (   0.0250000   0.0250000  -0.0250000), wk =   0.0015000
        k(   21) = (   0.0250000   0.0750000   0.0750000), wk =   0.0015000
        k(   22) = (   0.0250000   0.0750000   0.1250000), wk =   0.0030000
        k(   23) = (   0.0250000   0.0750000   0.1750000), wk =   0.0030000
        k(   24) = (   0.0250000   0.0750000   0.2250000), wk =   0.0030000
        k(   25) = (   0.0250000   0.0750000   0.2750000), wk =   0.0030000
        k(   26) = (   0.0250000   0.0750000   0.3250000), wk =   0.0030000
        k(   27) = (   0.0250000   0.0750000   0.3750000), wk =   0.0030000
        k(   28) = (   0.0250000   0.0750000   0.4250000), wk =   0.0030000
        k(   29) = (   0.0250000   0.0750000   0.4750000), wk =   0.0030000
        k(   30) = (   0.0250000   0.0750000  -0.4750000), wk =   0.0030000
        k(   31) = (   0.0250000   0.0750000  -0.4250000), wk =   0.0030000
        k(   32) = (   0.0250000   0.0750000  -0.3750000), wk =   0.0030000
        k(   33) = (   0.0250000   0.0750000  -0.3250000), wk =   0.0030000
        k(   34) = (   0.0250000   0.0750000  -0.2750000), wk =   0.0030000
        k(   35) = (   0.0250000   0.0750000  -0.2250000), wk =   0.0030000
        k(   36) = (   0.0250000   0.0750000  -0.1750000), wk =   0.0030000
        k(   37) = (   0.0250000   0.0750000  -0.1250000), wk =   0.0030000
        k(   38) = (   0.0250000   0.0750000  -0.0750000), wk =   0.0030000
        k(   39) = (   0.0250000   0.0750000  -0.0250000), wk =   0.0030000
        k(   40) = (   0.0250000   0.1250000   0.1250000), wk =   0.0015000
        k(   41) = (   0.0250000   0.1250000   0.1750000), wk =   0.0030000
        k(   42) = (   0.0250000   0.1250000   0.2250000), wk =   0.0030000
        k(   43) = (   0.0250000   0.1250000   0.2750000), wk =   0.0030000
        k(   44) = (   0.0250000   0.1250000   0.3250000), wk =   0.0030000
        k(   45) = (   0.0250000   0.1250000   0.3750000), wk =   0.0030000
        k(   46) = (   0.0250000   0.1250000   0.4250000), wk =   0.0030000
        k(   47) = (   0.0250000   0.1250000   0.4750000), wk =   0.0030000
        k(   48) = (   0.0250000   0.1250000  -0.4750000), wk =   0.0030000
        k(   49) = (   0.0250000   0.1250000  -0.4250000), wk =   0.0030000
        k(   50) = (   0.0250000   0.1250000  -0.3750000), wk =   0.0030000
        k(   51) = (   0.0250000   0.1250000  -0.3250000), wk =   0.0030000
        k(   52) = (   0.0250000   0.1250000  -0.2750000), wk =   0.0030000
        k(   53) = (   0.0250000   0.1250000  -0.2250000), wk =   0.0030000
        k(   54) = (   0.0250000   0.1250000  -0.1750000), wk =   0.0030000
        k(   55) = (   0.0250000   0.1250000  -0.1250000), wk =   0.0030000
        k(   56) = (   0.0250000   0.1250000  -0.0750000), wk =   0.0030000
        k(   57) = (   0.0250000   0.1250000  -0.0250000), wk =   0.0030000
        k(   58) = (   0.0250000   0.1750000   0.1750000), wk =   0.0015000
        k(   59) = (   0.0250000   0.1750000   0.2250000), wk =   0.0030000
        k(   60) = (   0.0250000   0.1750000   0.2750000), wk =   0.0030000
        k(   61) = (   0.0250000   0.1750000   0.3250000), wk =   0.0030000
        k(   62) = (   0.0250000   0.1750000   0.3750000), wk =   0.0030000
        k(   63) = (   0.0250000   0.1750000   0.4250000), wk =   0.0030000
        k(   64) = (   0.0250000   0.1750000   0.4750000), wk =   0.0030000
        k(   65) = (   0.0250000   0.1750000  -0.4750000), wk =   0.0030000
        k(   66) = (   0.0250000   0.1750000  -0.4250000), wk =   0.0030000
        k(   67) = (   0.0250000   0.1750000  -0.3750000), wk =   0.0030000
        k(   68) = (   0.0250000   0.1750000  -0.3250000), wk =   0.0030000
        k(   69) = (   0.0250000   0.1750000  -0.2750000), wk =   0.0030000
        k(   70) = (   0.0250000   0.1750000  -0.2250000), wk =   0.0030000
        k(   71) = (   0.0250000   0.1750000  -0.1750000), wk =   0.0030000
        k(   72) = (   0.0250000   0.1750000  -0.1250000), wk =   0.0030000
        k(   73) = (   0.0250000   0.1750000  -0.0750000), wk =   0.0030000
        k(   74) = (   0.0250000   0.1750000  -0.0250000), wk =   0.0030000
        k(   75) = (   0.0250000   0.2250000   0.2250000), wk =   0.0015000
        k(   76) = (   0.0250000   0.2250000   0.2750000), wk =   0.0030000
        k(   77) = (   0.0250000   0.2250000   0.3250000), wk =   0.0030000
        k(   78) = (   0.0250000   0.2250000   0.3750000), wk =   0.0030000
        k(   79) = (   0.0250000   0.2250000   0.4250000), wk =   0.0030000
        k(   80) = (   0.0250000   0.2250000   0.4750000), wk =   0.0030000
        k(   81) = (   0.0250000   0.2250000  -0.4750000), wk =   0.0030000
        k(   82) = (   0.0250000   0.2250000  -0.4250000), wk =   0.0030000
        k(   83) = (   0.0250000   0.2250000  -0.3750000), wk =   0.0030000
        k(   84) = (   0.0250000   0.2250000  -0.3250000), wk =   0.0030000
        k(   85) = (   0.0250000   0.2250000  -0.2750000), wk =   0.0030000
        k(   86) = (   0.0250000   0.2250000  -0.2250000), wk =   0.0030000
        k(   87) = (   0.0250000   0.2250000  -0.1750000), wk =   0.0030000
        k(   88) = (   0.0250000   0.2250000  -0.1250000), wk =   0.0030000
        k(   89) = (   0.0250000   0.2250000  -0.0750000), wk =   0.0030000
        k(   90) = (   0.0250000   0.2250000  -0.0250000), wk =   0.0030000
        k(   91) = (   0.0250000   0.2750000   0.2750000), wk =   0.0015000
        k(   92) = (   0.0250000   0.2750000   0.3250000), wk =   0.0030000
        k(   93) = (   0.0250000   0.2750000   0.3750000), wk =   0.0030000
        k(   94) = (   0.0250000   0.2750000   0.4250000), wk =   0.0030000
        k(   95) = (   0.0250000   0.2750000   0.4750000), wk =   0.0030000
        k(   96) = (   0.0250000   0.2750000  -0.4750000), wk =   0.0030000
[...]

    -5.8746  -1.5201   1.7263   3.0212   7.9686   9.3226  11.2746  12.3091
    14.1762  16.8309  17.1696  18.0450  20.5087  22.5757  23.3852  25.1467
    25.9095  26.7354  28.0578  29.0056

     occupation numbers 
     1.0000   1.0000   1.0000   1.0000   0.0000   0.0000   0.0000   0.0000
     0.0000   0.0000   0.0000   0.0000   0.0000   0.0000   0.0000   0.0000
     0.0000   0.0000   0.0000   0.0000

          k =-0.1591-0.3712 0.8309 (  2948 PWs)   bands (ev):

    -5.7284  -1.5516   1.3782   2.7161   8.4646   9.2423  11.3284  12.8743
    13.3501  16.9014  17.8570  18.2332  21.5419  22.4751  23.2377  24.7546
    25.6709  26.9498  27.9452  28.5772

     occupation numbers 
     1.0000   1.0000   1.0000   1.0000   0.0000   0.0000   0.0000   0.0000
     0.0000   0.0000   0.0000   0.0000   0.0000   0.0000   0.0000   0.0000
     0.0000   0.0000   0.0000   0.0000

          k =-0.1237-0.3359 0.7955 (  2945 PWs)   bands (ev):

    -5.5920  -1.5935   1.1680   2.4067   8.5656   9.6536  11.1337  12.3618
    13.9388  16.9389  18.3048  18.8758  21.7913  22.3418  23.3367  24.4179
    25.4781  26.9096  27.3954  28.1806

     occupation numbers 
     1.0000   1.0000   1.0000   1.0000   0.0000   0.0000   0.0000   0.0000
     0.0000   0.0000   0.0000   0.0000   0.0000   0.0000   0.0000   0.0000
     0.0000   0.0000   0.0000   0.0000

          k =-0.9016 0.2298 0.2298 (  2940 PWs)   bands (ev):

    -5.9222  -1.5390   1.8993   3.2140   7.3819   9.8172  11.1846  11.8710
    14.8828  16.6389  16.9341  18.3646  19.4375  22.7196  23.9351  25.0533
    25.5951  27.1806  27.4701  28.8520

     occupation numbers 
     1.0000   1.0000   1.0000   1.0000   0.0000   0.0000   0.0000   0.0000
     0.0000   0.0000   0.0000   0.0000   0.0000   0.0000   0.0000   0.0000
     0.0000   0.0000   0.0000   0.0000

          k =-0.8662 0.2652 0.1945 (  2944 PWs)   bands (ev):

    -5.8142  -1.5688   1.5845   3.0588   7.5140   9.9314  11.3825  12.0903
    14.3634  16.4483  17.3719  18.4729  20.3786  22.8977  23.6682  24.9128
    25.7042  26.6735  27.6385  28.8548

     occupation numbers 
     1.0000   1.0000   1.0000   1.0000   0.0000   0.0000   0.0000   0.0000
     0.0000   0.0000   0.0000   0.0000   0.0000   0.0000   0.0000   0.0000
     0.0000   0.0000   0.0000   0.0000

          k =-0.8309 0.3005 0.1591 (  2944 PWs)   bands (ev):

    -5.7011  -1.5791   1.3200   2.7648   7.9457   9.8188  11.3382  12.7127
    13.5402  16.6624  18.0235  18.4172  21.4202  22.7275  23.3379  24.5685
    25.6278  26.7645  27.9736  28.3285

     occupation numbers 
     1.0000   1.0000   1.0000   1.0000   0.0000   0.0000   0.0000   0.0000
     0.0000   0.0000   0.0000   0.0000   0.0000   0.0000   0.0000   0.0000
     0.0000   0.0000   0.0000   0.0000

          k =-0.8309 0.2298 0.2298 (  2938 PWs)   bands (ev):

    -5.7440  -1.5856   1.3481   3.0796   7.2860  10.3823  11.7288  11.8876
    14.2798  15.7330  17.7514  19.2015  20.6824  22.9932  23.2686  25.3409
    25.3468  26.6821  27.2829  28.5146

     occupation numbers 
     1.0000   1.0000   1.0000   1.0000   0.0000   0.0000   0.0000   0.0000
     0.0000   0.0000   0.0000   0.0000   0.0000   0.0000   0.0000   0.0000
     0.0000   0.0000   0.0000   0.0000

          k =-0.7955 0.2652 0.1945 (  2943 PWs)   bands (ev):

    -5.6694  -1.5833   1.1452   2.9297   7.4215  10.4834  11.5649  12.5023
    13.6357  15.6606  18.3433  19.3569  21.4772  22.4090  23.2132  24.9378
    25.5265  26.7167  27.5796  28.2190

     occupation numbers 
     1.0000   1.0000   1.0000   1.0000   0.0000   0.0000   0.0000   0.0000
     0.0000   0.0000   0.0000   0.0000   0.0000   0.0000   0.0000   0.0000
     0.0000   0.0000   0.0000   0.0000

          k =-0.7601 0.2298 0.2298 (  2937 PWs)   bands (ev):

    -5.6360  -1.5750   0.9908   3.0024   7.2017  10.7450  12.2000  12.2628
    13.4295  15.0447  18.8277  19.8402  21.7946  21.9118  23.2534  24.4440
    25.8861  27.0895  27.2904  28.2126

     occupation numbers 
     1.0000   1.0000   1.0000   1.0000   0.0000   0.0000   0.0000   0.0000
     0.0000   0.0000   0.0000   0.0000   0.0000   0.0000   0.0000   0.0000
     0.0000   0.0000   0.0000   0.0000

          k = 0.2652 0.2652 0.2652 (  2935 PWs)   bands (ev):

    -6.5500  -0.9988   3.9769   3.9769   6.2228   9.7070   9.7070  12.6114
    14.0748  15.3212  15.3212  18.8404  20.6608  20.6608  22.7057  24.2819
    24.2819  27.3311  30.5357  31.1609

     occupation numbers 
     1.0000   1.0000   1.0000   1.0000   0.0000   0.0000   0.0000   0.0000
     0.0000   0.0000   0.0000   0.0000   0.0000   0.0000   0.0000   0.0000
     0.0000   0.0000   0.0000   0.0000

          k = 0.3005 0.3005 0.2298 (  2941 PWs)   bands (ev):

    -6.4478  -1.1671   3.5961   3.9905   6.4541   9.6944   9.7060  12.6739
    14.2585  15.0750  16.2783  18.4804  20.0576  20.8320  22.8533  24.2105
    25.3105  27.8772  29.9903  30.3397

     occupation numbers 
     1.0000   1.0000   1.0000   1.0000   0.0000   0.0000   0.0000   0.0000
     0.0000   0.0000   0.0000   0.0000   0.0000   0.0000   0.0000   0.0000
     0.0000   0.0000   0.0000   0.0000

          k = 0.3359 0.3359 0.1945 (  2939 PWs)   bands (ev):

    -6.3125  -1.2936   2.9551   3.8940   6.9615   9.5794   9.9038  12.7423
    14.5848  14.8956  17.0822  17.8314  20.1964  21.0464  22.8247  24.3964
    26.3985  28.2987  29.3131  29.5962

     occupation numbers 
     1.0000   1.0000   1.0000   1.0000   0.0000   0.0000   0.0000   0.0000
     0.0000   0.0000   0.0000   0.0000   0.0000   0.0000   0.0000   0.0000
     0.0000   0.0000   0.0000   0.0000

          k =-0.3359-0.3359 0.8662 (  2946 PWs)   bands (ev):

    -6.1515  -1.3802   2.2866   3.7118   7.4049   9.5665  10.3074  12.7507
    14.7903  14.8623  16.5505  18.6169  20.6701  21.2934  22.6185  24.8809
    27.3464  28.0750  28.4030  29.0553

     occupation numbers 
     1.0000   1.0000   1.0000   1.0000   0.0000   0.0000   0.0000   0.0000
     0.0000   0.0000   0.0000   0.0000   0.0000   0.0000   0.0000   0.0000
     0.0000   0.0000   0.0000   0.0000

          k =-0.3005-0.3005 0.8309 (  2947 PWs)   bands (ev):

    -5.9751  -1.4393   1.6935   3.4810   7.5407   9.9079  10.8600  12.6647
    14.3739  14.7681  16.8591  19.3095  21.4127  21.5531  22.4138  25.4798
    26.7431  27.5755  28.3206  28.6392

     occupation numbers 
     1.0000   1.0000   1.0000   1.0000   0.0000   0.0000   0.0000   0.0000
     0.0000   0.0000   0.0000   0.0000   0.0000   0.0000   0.0000   0.0000
     0.0000   0.0000   0.0000   0.0000

          k =-0.2652-0.2652 0.7955 (  2944 PWs)   bands (ev):

    -5.7970  -1.4955   1.2429   3.2360   7.4141  10.5021  11.5103  12.4097
    13.6980  14.8439  17.7922  19.6574  21.7865  21.9143  22.6365  25.5764
    25.8860  27.1891  27.8660  27.9469

     occupation numbers 
     1.0000   1.0000   1.0000   1.0000   0.0000   0.0000   0.0000   0.0000
     0.0000   0.0000   0.0000   0.0000   0.0000   0.0000   0.0000   0.0000
     0.0000   0.0000   0.0000   0.0000

          k = 0.3359 0.2652 0.2652 (  2934 PWs)   bands (ev):

    -6.3726  -1.3250   3.7193   3.8020   6.4372   9.5210   9.8637  12.7067
    14.3254  15.6375  16.3566  18.4742  19.3648  20.6430  23.1623  24.6957
    25.6585  28.1421  29.6132  30.1456

     occupation numbers 
     1.0000   1.0000   1.0000   1.0000   0.0000   0.0000   0.0000   0.0000
     0.0000   0.0000   0.0000   0.0000   0.0000   0.0000   0.0000   0.0000
     0.0000   0.0000   0.0000   0.0000

          k = 0.3712 0.3005 0.2298 (  2934 PWs)   bands (ev):

    -6.2654  -1.4385   3.2056   3.7786   6.8089   9.4294   9.9977  12.7809
    14.4668  15.6713  17.0571  17.8468  19.3074  20.8294  23.3491  24.8801
    26.5058  27.9761  29.3433  29.8291

     occupation numbers 
     1.0000   1.0000   1.0000   1.0000   0.0000   0.0000   0.0000   0.0000
     0.0000   0.0000   0.0000   0.0000   0.0000   0.0000   0.0000   0.0000
     0.0000   0.0000   0.0000   0.0000

          k =-0.3005-0.3712 0.9016 (  2940 PWs)   bands (ev):

    -6.1322  -1.5058   2.5716   3.6439   7.3020   9.3331  10.3174  12.8509
    14.6363  15.6201  16.5537  18.3456  19.8296  21.1027  23.2630  25.2645
    27.3166  27.5023  28.6541  29.2869

     occupation numbers 
     1.0000   1.0000   1.0000   1.0000   0.0000   0.0000   0.0000   0.0000
     0.0000   0.0000   0.0000   0.0000   0.0000   0.0000   0.0000   0.0000
     0.0000   0.0000   0.0000   0.0000

          k =-0.2652-0.3359 0.8662 (  2940 PWs)   bands (ev):

    -5.9811  -1.5358   1.9675   3.4278   7.6250   9.4452  10.8256  12.8225
    14.2962  15.6026  16.5310  18.8762  20.6637  21.5077  23.0339  25.7273
    26.7577  27.3629  28.3719  28.9251

     occupation numbers 
     1.0000   1.0000   1.0000   1.0000   0.0000   0.0000   0.0000   0.0000
     0.0000   0.0000   0.0000   0.0000   0.0000   0.0000   0.0000   0.0000
     0.0000   0.0000   0.0000   0.0000

          k =-0.2298-0.3005 0.8309 (  2943 PWs)   bands (ev):

    -5.8223  -1.5506   1.4705   3.1780   7.6113   9.9372  11.3895  12.5812
    13.7439  15.5839  17.3225  19.1713  21.2429  22.2485  22.8257  25.5726
    26.2361  26.9991  27.7288  28.3315

     occupation numbers 
     1.0000   1.0000   1.0000   1.0000   0.0000   0.0000   0.0000   0.0000
     0.0000   0.0000   0.0000   0.0000   0.0000   0.0000   0.0000   0.0000
     0.0000   0.0000   0.0000   0.0000

          k = 0.4066 0.2652 0.2652 (  2930 PWs)   bands (ev):

    -6.1887  -1.5394   3.1073   3.6228   6.9353   9.3457  10.1481  12.7557
    14.5081  16.2787  17.1911  17.9096  18.4656  20.9966  23.7937  25.2093
    26.8535  27.3164  29.1283  30.1123

     occupation numbers 
     1.0000   1.0000   1.0000   1.0000   0.0000   0.0000   0.0000   0.0000
     0.0000   0.0000   0.0000   0.0000   0.0000   0.0000   0.0000   0.0000
     0.0000   0.0000   0.0000   0.0000

          k =-0.2652-0.4066 0.9369 (  2937 PWs)   bands (ev):

    -6.0871  -1.5915   2.6505   3.5193   7.2802   9.2686  10.4152  12.7738
    14.6286  16.1889  16.9918  17.8694  19.1196  21.2535  23.9167  25.5349
    26.6175  27.4569  28.7165  29.2428

     occupation numbers 
     1.0000   1.0000   1.0000   1.0000   0.0000   0.0000   0.0000   0.0000
     0.0000   0.0000   0.0000   0.0000   0.0000   0.0000   0.0000   0.0000
     0.0000   0.0000   0.0000   0.0000

          k =-0.2298-0.3712 0.9016 (  2941 PWs)   bands (ev):

    -5.9668  -1.6006   2.1277   3.3185   7.7326   9.1506  10.8923  12.7911
    14.2837  16.1979  16.8533  18.0532  20.2252  21.6099  23.7367  25.5488
    26.4235  27.4218  28.3080  28.9927

     occupation numbers 
     1.0000   1.0000   1.0000   1.0000   0.0000   0.0000   0.0000   0.0000
     0.0000   0.0000   0.0000   0.0000   0.0000   0.0000   0.0000   0.0000
     0.0000   0.0000   0.0000   0.0000

          k =-0.1945-0.3359 0.8662 (  2945 PWs)   bands (ev):

    -5.8350  -1.5854   1.6592   3.0494   8.0190   9.2746  11.3936  12.7400
    13.6128  16.5507  17.1518  18.2438  21.0685  22.2177  23.4469  25.0113
    26.2769  27.1907  27.8357  28.7908

     occupation numbers 
     1.0000   1.0000   1.0000   1.0000   0.0000   0.0000   0.0000   0.0000
     0.0000   0.0000   0.0000   0.0000   0.0000   0.0000   0.0000   0.0000
     0.0000   0.0000   0.0000   0.0000

          k =-0.9369 0.2652 0.2652 (  2934 PWs)   bands (ev):

    -6.0196  -1.6290   2.4126   3.4588   7.3255   9.4135  10.5447  12.7009
    14.7195  16.3835  16.6224  18.2008  19.1588  21.4793  24.2330  25.7945
    25.9713  27.5815  28.6703  28.8740

     occupation numbers 
     1.0000   1.0000   1.0000   1.0000   0.0000   0.0000   0.0000   0.0000
     0.0000   0.0000   0.0000   0.0000   0.0000   0.0000   0.0000   0.0000
     0.0000   0.0000   0.0000   0.0000

          k =-0.9016 0.3005 0.2298 (  2940 PWs)   bands (ev):

    -5.9340  -1.6215   2.0317   3.3183   7.5669   9.4275  10.9161  12.6769
    14.4027  16.2216  16.7261  18.2955  20.1066  21.7762  23.9615  25.4205
    26.3496  27.3775  28.1222  28.8515

     occupation numbers 
     1.0000   1.0000   1.0000   1.0000   0.0000   0.0000   0.0000   0.0000
     0.0000   0.0000   0.0000   0.0000   0.0000   0.0000   0.0000   0.0000
     0.0000   0.0000   0.0000   0.0000

          k =-0.8662 0.2652 0.2652 (  2938 PWs)   bands (ev):

    -5.8851  -1.5998   1.7597   3.3259   7.4423   9.8550  11.0223  12.5741
    14.3775  15.6630  16.7957  19.0193  20.4349  22.0011  23.4156  25.8251
    26.2453  27.2741  27.7572  28.4066

     occupation numbers 
     1.0000   1.0000   1.0000   1.0000   0.0000   0.0000   0.0000   0.0000
     0.0000   0.0000   0.0000   0.0000   0.0000   0.0000   0.0000   0.0000
     0.0000   0.0000   0.0000   0.0000

          k = 0.3005 0.3005 0.3005 (  2938 PWs)   bands (ev):

    -6.3263  -1.4720   3.8994   3.8994   6.1383   9.6710   9.6710  12.7073
    14.6666  16.1000  16.1000  18.5049  19.4919  19.4919  23.4875  25.6692
    25.6692  28.0797  29.6885  30.1404

     occupation numbers 
     1.0000   1.0000   1.0000   1.0000   0.0000   0.0000   0.0000   0.0000
     0.0000   0.0000   0.0000   0.0000   0.0000   0.0000   0.0000   0.0000
     0.0000   0.0000   0.0000   0.0000

          k = 0.3359 0.3359 0.2652 (  2939 PWs)   bands (ev):

    -6.2491  -1.5719   3.5631   3.8855   6.3880   9.6244   9.7069  12.8145
    14.7865  15.8957  16.9288  17.8984  19.2540  19.6729  23.7780  25.6296
    26.7093  27.7979  29.1569  30.0069

     occupation numbers 
     1.0000   1.0000   1.0000   1.0000   0.0000   0.0000   0.0000   0.0000
     0.0000   0.0000   0.0000   0.0000   0.0000   0.0000   0.0000   0.0000
     0.0000   0.0000   0.0000   0.0000

          k =-0.3359-0.3359 0.9369 (  2934 PWs)   bands (ev):

    -6.1458  -1.6203   2.9565   3.7642   6.9134   9.4696   9.9674  13.0322
    14.8626  15.7510  16.5308  18.1953  19.7778  19.9003  23.8327  25.8065
    27.3465  27.6227  28.3816  29.7737

     occupation numbers 
     1.0000   1.0000   1.0000   1.0000   0.0000   0.0000   0.0000   0.0000
     0.0000   0.0000   0.0000   0.0000   0.0000   0.0000   0.0000   0.0000
     0.0000   0.0000   0.0000   0.0000

          k =-0.3005-0.3005 0.9016 (  2942 PWs)   bands (ev):

    -6.0220  -1.6232   2.3199   3.5651   7.3473   9.4708  10.4204  13.0479
    14.7090  15.6715  16.2111  18.7216  20.1615  20.7833  23.6630  26.0584
    27.0517  27.1063  28.8378  29.0478

     occupation numbers 
     1.0000   1.0000   1.0000   1.0000   0.0000   0.0000   0.0000   0.0000
     0.0000   0.0000   0.0000   0.0000   0.0000   0.0000   0.0000   0.0000
     0.0000   0.0000   0.0000   0.0000

          k = 0.3712 0.3005 0.3005 (  2934 PWs)   bands (ev):

    -6.2043  -1.6584   3.6264   3.7891   6.3795   9.5292   9.7902  12.8131
    14.8809  16.3681  17.0346  17.9444  18.4437  19.6524  24.1739  26.1194
    27.0825  27.3615  28.7722  29.7316

     occupation numbers 
     1.0000   1.0000   1.0000   1.0000   0.0000   0.0000   0.0000   0.0000
     0.0000   0.0000   0.0000   0.0000   0.0000   0.0000   0.0000   0.0000
     0.0000   0.0000   0.0000   0.0000

          k =-0.3005-0.3712 0.9723 (  2943 PWs)   bands (ev):

    -6.1341  -1.6910   3.1740   3.7234   6.7687   9.4151   9.9607  12.9858
    14.8733  16.2241  16.8810  17.8577  18.9255  19.9303  24.3481  26.2614
    26.8822  27.6347  28.3715  29.5315

     occupation numbers 
     1.0000   1.0000   1.0000   1.0000   0.0000   0.0000   0.0000   0.0000
     0.0000   0.0000   0.0000   0.0000   0.0000   0.0000   0.0000   0.0000
     0.0000   0.0000   0.0000   0.0000

          k =-0.2652-0.3359 0.9369 (  2936 PWs)   bands (ev):

    -6.0425  -1.6732   2.5899   3.5550   7.2724   9.2874  10.3546  13.0775
    14.6937  15.9320  16.6521  18.0886  19.7075  20.6005  24.2332  25.9720
    26.8432  27.2685  28.8309  29.2507

     occupation numbers 
     1.0000   1.0000   1.0000   1.0000   0.0000   0.0000   0.0000   0.0000
     0.0000   0.0000   0.0000   0.0000   0.0000   0.0000   0.0000   0.0000
     0.0000   0.0000   0.0000   0.0000

          k =-0.9723 0.3005 0.3005 (  2938 PWs)   bands (ev):

    -6.0990  -1.7080   3.0083   3.6725   6.9045   9.3907  10.0477  13.0298
    14.8578  16.3269  16.6624  18.0170  18.8958  20.1389  24.5265  26.3719
    26.6397  27.4479  28.6398  29.3267

     occupation numbers 
     1.0000   1.0000   1.0000   1.0000   0.0000   0.0000   0.0000   0.0000
     0.0000   0.0000   0.0000   0.0000   0.0000   0.0000   0.0000   0.0000
     0.0000   0.0000   0.0000   0.0000

          k = 0.3359 0.3359 0.3359 (  2926 PWs)   bands (ev):

    -6.1934  -1.7304   3.8601   3.8601   6.0954   9.6464   9.6464  12.7020
    15.1996  16.8815  16.8815  18.0313  18.5191  18.5191  24.5231  27.0923
    27.0923  27.1420  28.7161  28.7161

     occupation numbers 
     1.0000   1.0000   1.0000   1.0000   0.0000   0.0000   0.0000   0.0000
     0.0000   0.0000   0.0000   0.0000   0.0000   0.0000   0.0000   0.0000
     0.0000   0.0000   0.0000   0.0000

          k =-0.3359-0.3359 1.0076 (  2931 PWs)   bands (ev):

    -6.1577  -1.7464   3.5736   3.8174   6.3629   9.5622   9.7362  12.8334
    15.1585  16.7522  16.8393  17.8235  18.6758  18.9428  24.6656  26.7744
    27.1587  27.4961  28.3633  28.7426

     occupation numbers 
     1.0000   1.0000   1.0000   1.0000   0.0000   0.0000   0.0000   0.0000
     0.0000   0.0000   0.0000   0.0000   0.0000   0.0000   0.0000   0.0000
     0.0000   0.0000   0.0000   0.0000

     highest occupied, lowest unoccupied level (ev):     4.9890    5.9636

     Writing output data file run_output/GaAs.save/

     init_run     :      0.12s CPU      0.19s WALL (       1 calls)
     electrons    :     21.78s CPU     23.16s WALL (       1 calls)

     Called by init_run:
     wfcinit      :      0.00s CPU      0.00s WALL (       1 calls)
     wfcinit:atom :      0.01s CPU      0.01s WALL (     110 calls)
     wfcinit:wfcr :      1.14s CPU      1.30s WALL (     110 calls)
     potinit      :      0.00s CPU      0.05s WALL (       1 calls)
     hinit0       :      0.02s CPU      0.03s WALL (       1 calls)

     Called by electrons:
     c_bands      :     21.75s CPU     23.06s WALL (       1 calls)
     v_of_rho     :      0.00s CPU      0.02s WALL (       1 calls)
     v_h          :      0.00s CPU      0.00s WALL (       1 calls)
     v_xc         :      0.00s CPU      0.00s WALL (       1 calls)

     Called by c_bands:
     init_us_2    :      0.01s CPU      0.01s WALL (     110 calls)
     cegterg      :     16.31s CPU     16.58s WALL (     162 calls)

     Called by sum_band:

     Called by *egterg:
     cdiaghg      :      3.75s CPU      3.91s WALL (    2434 calls)
     cegterg:over :      0.71s CPU      0.72s WALL (    2324 calls)
     cegterg:upda :      0.31s CPU      0.31s WALL (    2324 calls)
     cegterg:last :      0.43s CPU      0.44s WALL (    1401 calls)
     cdiaghg:chol :      0.22s CPU      0.27s WALL (    2434 calls)
     cdiaghg:inve :      0.15s CPU      0.15s WALL (    2434 calls)
     cdiaghg:para :      0.24s CPU      0.24s WALL (    4868 calls)
     h_psi        :     11.98s CPU     12.22s WALL (    2596 calls)
     g_psi        :      0.11s CPU      0.11s WALL (    2324 calls)

     Called by h_psi:
     h_psi:calbec :      0.18s CPU      0.20s WALL (    2596 calls)
     vloc_psi     :     11.70s CPU     11.92s WALL (    2596 calls)
     add_vuspsi   :      0.05s CPU      0.05s WALL (    2596 calls)

     General routines
     calbec       :      0.17s CPU      0.19s WALL (    2596 calls)
     fft          :      0.00s CPU      0.00s WALL (       4 calls)
     fftw         :      9.82s CPU     10.01s WALL (   57422 calls)
     davcio       :      0.01s CPU      0.85s WALL (     220 calls)

     Parallel routines
     fft_scatt_xy :      1.57s CPU      1.60s WALL (   57426 calls)
     fft_scatt_yz :      2.54s CPU      2.59s WALL (   57426 calls)

     PWSCF        :     22.71s CPU     34.60s WALL


   This run was terminated on:  18:18:19   9Nov2021            

=------------------------------------------------------------------------------=
   JOB DONE.
=------------------------------------------------------------------------------=
