
     Program PWSCF v.6.7MaX starts on 29Jun2021 at 19: 1:22 

     This program is part of the open-source Quantum ESPRESSO suite
     for quantum simulation of materials; please cite
         "P. Giannozzi et al., J. Phys.:Condens. Matter 21 395502 (2009);
         "P. Giannozzi et al., J. Phys.:Condens. Matter 29 465901 (2017);
          URL http://www.quantum-espresso.org", 
     in publications or presentations arising from this work. More details at
     http://www.quantum-espresso.org/quote

     Parallel version (MPI), running on    84 processors

     MPI processes distributed on     3 nodes
     K-points division:     npool     =      14
     R & G space division:  proc/nbgrp/npool/nimage =       6
     Waiting for input...
     Reading input from standard input

     Current dimensions of program PWSCF are:
     Max number of different atomic species (ntypx) = 10
     Max number of k-points (npk) =  40000
     Max angular momentum in pseudopotentials (lmaxx) =  3

     Subspace diagonalization in iterative solution of the eigenvalue problem:
     a serial algorithm will be used

     Found symmetry operation: I + ( -0.5000  0.0000 -0.5000)
     This is a supercell, fractional translations are disabled
     Message from routine setup:
     using ibrav=0 with symmetry is DISCOURAGED, use correct ibrav instead

     Parallelization info
     --------------------
     sticks:   dense  smooth     PW     G-vecs:    dense   smooth      PW
     Min         115     115     33                 6505     6505    1075
     Max         116     116     34                 6512     6512    1086
     Sum         691     691    203                39043    39043    6489



     bravais-lattice index     =            0
     lattice parameter (alat)  =       6.2476  a.u.
     unit-cell volume          =    1139.7026 (a.u.)^3
     number of atoms/cell      =            8
     number of atomic types    =            1
     number of electrons       =        40.00
     number of Kohn-Sham states=           20
     kinetic-energy cutoff     =      40.0000  Ry
     charge density cutoff     =     160.0000  Ry
     scf convergence threshold =      1.0E-10
     mixing beta               =       0.7000
     number of iterations used =            8  plain     mixing
     Exchange-correlation= SLA-PW-PBX-PBC
                           (   1   4   3   4   0   0   0)

     celldm(1)=   6.247642  celldm(2)=   0.000000  celldm(3)=   0.000000
     celldm(4)=   0.000000  celldm(5)=   0.000000  celldm(6)=   0.000000

     crystal axes: (cart. coord. in units of alat)
               a(1) = (   1.000000   0.000000   0.000000 )  
               a(2) = (   0.000000   1.376971   0.000000 )  
               a(3) = (   0.000000   0.000000   3.394050 )  

     reciprocal axes: (cart. coord. in units 2 pi/alat)
               b(1) = (  1.000000  0.000000  0.000000 )  
               b(2) = (  0.000000  0.726232  0.000000 )  
               b(3) = (  0.000000  0.000000  0.294633 )  


     PseudoPot. # 1 for P  read from file:
     PPs/P.pbe-hgh.UPF
     MD5 check sum: 2fd0d529aa5ddd1edad02a885f5e7817
     Pseudo is Norm-conserving, Zval =  5.0
     Generated in analytical, separable form
     Using radial grid of 1147 points,  3 beta functions with: 
                l(1) =   0
                l(2) =   0
                l(3) =   1

     atomic species   valence    mass     pseudopotential
        P              5.00    30.97000     P ( 1.00)

      4 Sym. Ops., with inversion, found


                                    s                        frac. trans.

      isym =  1     identity                                     

 cryst.   s( 1) = (     1          0          0      )
                  (     0          1          0      )
                  (     0          0          1      )

 cart.    s( 1) = (  1.0000000  0.0000000  0.0000000 )
                  (  0.0000000  1.0000000  0.0000000 )
                  (  0.0000000  0.0000000  1.0000000 )


      isym =  2     180 deg rotation - cart. axis [1,0,0]        

 cryst.   s( 2) = (     1          0          0      )
                  (     0         -1          0      )
                  (     0          0         -1      )

 cart.    s( 2) = (  1.0000000  0.0000000  0.0000000 )
                  (  0.0000000 -1.0000000  0.0000000 )
                  (  0.0000000  0.0000000 -1.0000000 )


      isym =  3     inversion                                    

 cryst.   s( 3) = (    -1          0          0      )
                  (     0         -1          0      )
                  (     0          0         -1      )

 cart.    s( 3) = ( -1.0000000  0.0000000  0.0000000 )
                  (  0.0000000 -1.0000000  0.0000000 )
                  (  0.0000000  0.0000000 -1.0000000 )


      isym =  4     inv. 180 deg rotation - cart. axis [1,0,0]   

 cryst.   s( 4) = (    -1          0          0      )
                  (     0          1          0      )
                  (     0          0          1      )

 cart.    s( 4) = ( -1.0000000  0.0000000  0.0000000 )
                  (  0.0000000  1.0000000  0.0000000 )
                  (  0.0000000  0.0000000  1.0000000 )


   Cartesian axes

     site n.     atom                  positions (alat units)
         1           P   tau(   1) = (   0.0000000   1.2578399   2.0177422  )
         2           P   tau(   2) = (   0.5000000   0.1191314   3.0733325  )
         3           P   tau(   3) = (   0.0000000   0.5693542   3.0733325  )
         4           P   tau(   4) = (   0.5000000   0.8076170   2.0177422  )
         5           P   tau(   5) = (   0.5000000   1.2578399   0.3207174  )
         6           P   tau(   6) = (   0.0000000   0.1191314   1.3763076  )
         7           P   tau(   7) = (   0.5000000   0.5693542   1.3763076  )
         8           P   tau(   8) = (   0.0000000   0.8076170   0.3207174  )

   Crystallographic axes

     site n.     atom                  positions (cryst. coord.)
         1           P   tau(   1) = (  0.0000000  0.9134831  0.5944940  )
         2           P   tau(   2) = (  0.5000000  0.0865170  0.9055060  )
         3           P   tau(   3) = (  0.0000000  0.4134830  0.9055060  )
         4           P   tau(   4) = (  0.5000000  0.5865170  0.5944940  )
         5           P   tau(   5) = (  0.5000000  0.9134831  0.0944940  )
         6           P   tau(   6) = (  0.0000000  0.0865170  0.4055060  )
         7           P   tau(   7) = (  0.5000000  0.4134830  0.4055060  )
         8           P   tau(   8) = (  0.0000000  0.5865170  0.0944940  )

     number of k points=   176
                       cart. coord. in units 2pi/alat
        k(    1) = (   0.0000000   0.0000000   0.0000000), wk =   0.0035714
        k(    2) = (   0.0000000   0.0000000   0.0736583), wk =   0.0071429
        k(    3) = (   0.0000000   0.0000000  -0.1473166), wk =   0.0035714
        k(    4) = (   0.0000000   0.0726232   0.0000000), wk =   0.0071429
        k(    5) = (   0.0000000   0.0726232   0.0736583), wk =   0.0071429
        k(    6) = (   0.0000000   0.0726232  -0.1473166), wk =   0.0071429
        k(    7) = (   0.0000000   0.1452463   0.0000000), wk =   0.0071429
        k(    8) = (   0.0000000   0.1452463   0.0736583), wk =   0.0071429
        k(    9) = (   0.0000000   0.1452463  -0.1473166), wk =   0.0071429
        k(   10) = (   0.0000000   0.2178695   0.0000000), wk =   0.0071429
        k(   11) = (   0.0000000   0.2178695   0.0736583), wk =   0.0071429
        k(   12) = (   0.0000000   0.2178695  -0.1473166), wk =   0.0071429
        k(   13) = (   0.0000000   0.2904926   0.0000000), wk =   0.0071429
        k(   14) = (   0.0000000   0.2904926   0.0736583), wk =   0.0071429
        k(   15) = (   0.0000000   0.2904926  -0.1473166), wk =   0.0071429
        k(   16) = (   0.0000000  -0.3631158   0.0000000), wk =   0.0035714
        k(   17) = (   0.0000000  -0.3631158   0.0736583), wk =   0.0071429
        k(   18) = (   0.0000000  -0.3631158  -0.1473166), wk =   0.0035714
        k(   19) = (   0.0714286   0.0000000   0.0000000), wk =   0.0071429
        k(   20) = (   0.0714286   0.0000000   0.0736583), wk =   0.0142857
        k(   21) = (   0.0714286   0.0000000  -0.1473166), wk =   0.0071429
        k(   22) = (   0.0714286   0.0726232   0.0000000), wk =   0.0142857
        k(   23) = (   0.0714286   0.0726232   0.0736583), wk =   0.0142857
        k(   24) = (   0.0714286   0.0726232  -0.1473166), wk =   0.0142857
        k(   25) = (   0.0714286   0.1452463   0.0000000), wk =   0.0142857
        k(   26) = (   0.0714286   0.1452463   0.0736583), wk =   0.0142857
        k(   27) = (   0.0714286   0.1452463  -0.1473166), wk =   0.0142857
        k(   28) = (   0.0714286   0.2178695   0.0000000), wk =   0.0142857
        k(   29) = (   0.0714286   0.2178695   0.0736583), wk =   0.0142857
        k(   30) = (   0.0714286   0.2178695  -0.1473166), wk =   0.0142857
        k(   31) = (   0.0714286   0.2904926   0.0000000), wk =   0.0142857
        k(   32) = (   0.0714286   0.2904926   0.0736583), wk =   0.0142857
        k(   33) = (   0.0714286   0.2904926  -0.1473166), wk =   0.0142857
        k(   34) = (   0.0714286  -0.3631158   0.0000000), wk =   0.0071429
        k(   35) = (   0.0714286  -0.3631158   0.0736583), wk =   0.0142857
        k(   36) = (   0.0714286  -0.3631158  -0.1473166), wk =   0.0071429
        k(   37) = (   0.1428571   0.0000000   0.0000000), wk =   0.0071429
        k(   38) = (   0.1428571   0.0000000   0.0736583), wk =   0.0142857
        k(   39) = (   0.1428571   0.0000000  -0.1473166), wk =   0.0071429
        k(   40) = (   0.1428571   0.0726232   0.0000000), wk =   0.0142857
        k(   41) = (   0.1428571   0.0726232   0.0736583), wk =   0.0142857
        k(   42) = (   0.1428571   0.0726232  -0.1473166), wk =   0.0142857
        k(   43) = (   0.1428571   0.1452463   0.0000000), wk =   0.0142857
        k(   44) = (   0.1428571   0.1452463   0.0736583), wk =   0.0142857
        k(   45) = (   0.1428571   0.1452463  -0.1473166), wk =   0.0142857
        k(   46) = (   0.1428571   0.2178695   0.0000000), wk =   0.0142857
        k(   47) = (   0.1428571   0.2178695   0.0736583), wk =   0.0142857
        k(   48) = (   0.1428571   0.2178695  -0.1473166), wk =   0.0142857
        k(   49) = (   0.1428571   0.2904926   0.0000000), wk =   0.0142857
        k(   50) = (   0.1428571   0.2904926   0.0736583), wk =   0.0142857
        k(   51) = (   0.1428571   0.2904926  -0.1473166), wk =   0.0142857
        k(   52) = (   0.1428571  -0.3631158   0.0000000), wk =   0.0071429
        k(   53) = (   0.1428571  -0.3631158   0.0736583), wk =   0.0142857
        k(   54) = (   0.1428571  -0.3631158  -0.1473166), wk =   0.0071429
        k(   55) = (   0.2142857   0.0000000   0.0000000), wk =   0.0071429
        k(   56) = (   0.2142857   0.0000000   0.0736583), wk =   0.0142857
        k(   57) = (   0.2142857   0.0000000  -0.1473166), wk =   0.0071429
        k(   58) = (   0.2142857   0.0726232   0.0000000), wk =   0.0142857
        k(   59) = (   0.2142857   0.0726232   0.0736583), wk =   0.0142857
        k(   60) = (   0.2142857   0.0726232  -0.1473166), wk =   0.0142857
        k(   61) = (   0.2142857   0.1452463   0.0000000), wk =   0.0142857
        k(   62) = (   0.2142857   0.1452463   0.0736583), wk =   0.0142857
        k(   63) = (   0.2142857   0.1452463  -0.1473166), wk =   0.0142857
        k(   64) = (   0.2142857   0.2178695   0.0000000), wk =   0.0142857
        k(   65) = (   0.2142857   0.2178695   0.0736583), wk =   0.0142857
        k(   66) = (   0.2142857   0.2178695  -0.1473166), wk =   0.0142857
        k(   67) = (   0.2142857   0.2904926   0.0000000), wk =   0.0142857
        k(   68) = (   0.2142857   0.2904926   0.0736583), wk =   0.0142857
        k(   69) = (   0.2142857   0.2904926  -0.1473166), wk =   0.0142857
        k(   70) = (   0.2142857  -0.3631158   0.0000000), wk =   0.0071429
        k(   71) = (   0.2142857  -0.3631158   0.0736583), wk =   0.0142857
        k(   72) = (   0.2142857  -0.3631158  -0.1473166), wk =   0.0071429
        k(   73) = (   0.2857143   0.0000000   0.0000000), wk =   0.0071429
        k(   74) = (   0.2857143   0.0000000   0.0736583), wk =   0.0142857
        k(   75) = (   0.2857143   0.0000000  -0.1473166), wk =   0.0071429
        k(   76) = (   0.2857143   0.0726232   0.0000000), wk =   0.0142857
        k(   77) = (   0.2857143   0.0726232   0.0736583), wk =   0.0142857
        k(   78) = (   0.2857143   0.0726232  -0.1473166), wk =   0.0142857
        k(   79) = (   0.2857143   0.1452463   0.0000000), wk =   0.0142857
        k(   80) = (   0.2857143   0.1452463   0.0736583), wk =   0.0142857
        k(   81) = (   0.2857143   0.1452463  -0.1473166), wk =   0.0142857
        k(   82) = (   0.2857143   0.2178695   0.0000000), wk =   0.0142857
        k(   83) = (   0.2857143   0.2178695   0.0736583), wk =   0.0142857
        k(   84) = (   0.2857143   0.2178695  -0.1473166), wk =   0.0142857
        k(   85) = (   0.2857143   0.2904926   0.0000000), wk =   0.0142857
        k(   86) = (   0.2857143   0.2904926   0.0736583), wk =   0.0142857
        k(   87) = (   0.2857143   0.2904926  -0.1473166), wk =   0.0142857
        k(   88) = (   0.2857143  -0.3631158   0.0000000), wk =   0.0071429
        k(   89) = (   0.2857143  -0.3631158   0.0736583), wk =   0.0142857
        k(   90) = (   0.2857143  -0.3631158  -0.1473166), wk =   0.0071429
        k(   91) = (   0.3571429   0.0000000   0.0000000), wk =   0.0071429
        k(   92) = (   0.3571429   0.0000000   0.0736583), wk =   0.0142857
        k(   93) = (   0.3571429   0.0000000  -0.1473166), wk =   0.0071429
        k(   94) = (   0.3571429   0.0726232   0.0000000), wk =   0.0142857
        k(   95) = (   0.3571429   0.0726232   0.0736583), wk =   0.0142857
        k(   96) = (   0.3571429   0.0726232  -0.1473166), wk =   0.0142857
        k(   97) = (   0.3571429   0.1452463   0.0000000), wk =   0.0142857
        k(   98) = (   0.3571429   0.1452463   0.0736583), wk =   0.0142857
        k(   99) = (   0.3571429   0.1452463  -0.1473166), wk =   0.0142857
        k(  100) = (   0.3571429   0.2178695   0.0000000), wk =   0.0142857
        k(  101) = (   0.3571429   0.2178695   0.0736583), wk =   0.0142857
        k(  102) = (   0.3571429   0.2178695  -0.1473166), wk =   0.0142857
        k(  103) = (   0.3571429   0.2904926   0.0000000), wk =   0.0142857
        k(  104) = (   0.3571429   0.2904926   0.0736583), wk =   0.0142857
        k(  105) = (   0.3571429   0.2904926  -0.1473166), wk =   0.0142857
        k(  106) = (   0.3571429  -0.3631158   0.0000000), wk =   0.0071429
        k(  107) = (   0.3571429  -0.3631158   0.0736583), wk =   0.0142857
        k(  108) = (   0.3571429  -0.3631158  -0.1473166), wk =   0.0071429
        k(  109) = (   0.4285714   0.0000000   0.0000000), wk =   0.0071429
        k(  110) = (   0.4285714   0.0000000   0.0736583), wk =   0.0142857
        k(  111) = (   0.4285714   0.0000000  -0.1473166), wk =   0.0071429
        k(  112) = (   0.4285714   0.0726232   0.0000000), wk =   0.0142857
        k(  113) = (   0.4285714   0.0726232   0.0736583), wk =   0.0142857
        k(  114) = (   0.4285714   0.0726232  -0.1473166), wk =   0.0142857
        k(  115) = (   0.4285714   0.1452463   0.0000000), wk =   0.0142857
        k(  116) = (   0.4285714   0.1452463   0.0736583), wk =   0.0142857
        k(  117) = (   0.4285714   0.1452463  -0.1473166), wk =   0.0142857
        k(  118) = (   0.4285714   0.2178695   0.0000000), wk =   0.0142857
        k(  119) = (   0.4285714   0.2178695   0.0736583), wk =   0.0142857
        k(  120) = (   0.4285714   0.2178695  -0.1473166), wk =   0.0142857
        k(  121) = (   0.4285714   0.2904926   0.0000000), wk =   0.0142857
        k(  122) = (   0.4285714   0.2904926   0.0736583), wk =   0.0142857
        k(  123) = (   0.4285714   0.2904926  -0.1473166), wk =   0.0142857
        k(  124) = (   0.4285714  -0.3631158   0.0000000), wk =   0.0071429
        k(  125) = (   0.4285714  -0.3631158   0.0736583), wk =   0.0142857
        k(  126) = (   0.4285714  -0.3631158  -0.1473166), wk =   0.0071429
        k(  127) = (  -0.5000000   0.0000000   0.0000000), wk =   0.0035714
        k(  128) = (  -0.5000000   0.0000000   0.0736583), wk =   0.0071429
        k(  129) = (  -0.5000000   0.0000000  -0.1473166), wk =   0.0035714
        k(  130) = (  -0.5000000   0.0726232   0.0000000), wk =   0.0071429
        k(  131) = (  -0.5000000   0.0726232   0.0736583), wk =   0.0071429
        k(  132) = (  -0.5000000   0.0726232  -0.1473166), wk =   0.0071429
        k(  133) = (  -0.5000000   0.1452463   0.0000000), wk =   0.0071429
        k(  134) = (  -0.5000000   0.1452463   0.0736583), wk =   0.0071429
        k(  135) = (  -0.5000000   0.1452463  -0.1473166), wk =   0.0071429
        k(  136) = (  -0.5000000   0.2178695   0.0000000), wk =   0.0071429
        k(  137) = (  -0.5000000   0.2178695   0.0736583), wk =   0.0071429
        k(  138) = (  -0.5000000   0.2178695  -0.1473166), wk =   0.0071429
        k(  139) = (  -0.5000000   0.2904926   0.0000000), wk =   0.0071429
        k(  140) = (  -0.5000000   0.2904926   0.0736583), wk =   0.0071429
        k(  141) = (  -0.5000000   0.2904926  -0.1473166), wk =   0.0071429
        k(  142) = (  -0.5000000  -0.3631158   0.0000000), wk =   0.0035714
        k(  143) = (  -0.5000000  -0.3631158   0.0736583), wk =   0.0071429
        k(  144) = (  -0.5000000  -0.3631158  -0.1473166), wk =   0.0035714
        k(  145) = (   0.0000000   0.0726232  -0.0736583), wk =   0.0071429
        k(  146) = (   0.0000000   0.1452463  -0.0736583), wk =   0.0071429
        k(  147) = (   0.0000000   0.2178695  -0.0736583), wk =   0.0071429
        k(  148) = (   0.0000000   0.2904926  -0.0736583), wk =   0.0071429
        k(  149) = (  -0.0714286   0.0726232  -0.0736583), wk =   0.0142857
        k(  150) = (  -0.0714286   0.1452463  -0.0736583), wk =   0.0142857
        k(  151) = (  -0.0714286   0.2178695  -0.0736583), wk =   0.0142857
        k(  152) = (  -0.0714286   0.2904926  -0.0736583), wk =   0.0142857
        k(  153) = (  -0.1428571   0.0726232  -0.0736583), wk =   0.0142857
        k(  154) = (  -0.1428571   0.1452463  -0.0736583), wk =   0.0142857
        k(  155) = (  -0.1428571   0.2178695  -0.0736583), wk =   0.0142857
        k(  156) = (  -0.1428571   0.2904926  -0.0736583), wk =   0.0142857
        k(  157) = (  -0.2142857   0.0726232  -0.0736583), wk =   0.0142857
        k(  158) = (  -0.2142857   0.1452463  -0.0736583), wk =   0.0142857
        k(  159) = (  -0.2142857   0.2178695  -0.0736583), wk =   0.0142857
        k(  160) = (  -0.2142857   0.2904926  -0.0736583), wk =   0.0142857
        k(  161) = (  -0.2857143   0.0726232  -0.0736583), wk =   0.0142857
        k(  162) = (  -0.2857143   0.1452463  -0.0736583), wk =   0.0142857
        k(  163) = (  -0.2857143   0.2178695  -0.0736583), wk =   0.0142857
        k(  164) = (  -0.2857143   0.2904926  -0.0736583), wk =   0.0142857
        k(  165) = (  -0.3571429   0.0726232  -0.0736583), wk =   0.0142857
        k(  166) = (  -0.3571429   0.1452463  -0.0736583), wk =   0.0142857
        k(  167) = (  -0.3571429   0.2178695  -0.0736583), wk =   0.0142857
        k(  168) = (  -0.3571429   0.2904926  -0.0736583), wk =   0.0142857
        k(  169) = (  -0.4285714   0.0726232  -0.0736583), wk =   0.0142857
        k(  170) = (  -0.4285714   0.1452463  -0.0736583), wk =   0.0142857
        k(  171) = (  -0.4285714   0.2178695  -0.0736583), wk =   0.0142857
        k(  172) = (  -0.4285714   0.2904926  -0.0736583), wk =   0.0142857
        k(  173) = (   0.5000000   0.0726232  -0.0736583), wk =   0.0071429
        k(  174) = (   0.5000000   0.1452463  -0.0736583), wk =   0.0071429
        k(  175) = (   0.5000000   0.2178695  -0.0736583), wk =   0.0071429
        k(  176) = (   0.5000000   0.2904926  -0.0736583), wk =   0.0071429

                       cryst. coord.
        k(    1) = (   0.0000000   0.0000000   0.0000000), wk =   0.0035714
        k(    2) = (   0.0000000   0.0000000   0.2500000), wk =   0.0071429
        k(    3) = (   0.0000000   0.0000000  -0.5000000), wk =   0.0035714
        k(    4) = (   0.0000000   0.1000000   0.0000000), wk =   0.0071429
        k(    5) = (   0.0000000   0.1000000   0.2500000), wk =   0.0071429
        k(    6) = (   0.0000000   0.1000000  -0.5000000), wk =   0.0071429
        k(    7) = (   0.0000000   0.2000000   0.0000000), wk =   0.0071429
        k(    8) = (   0.0000000   0.2000000   0.2500000), wk =   0.0071429
        k(    9) = (   0.0000000   0.2000000  -0.5000000), wk =   0.0071429
        k(   10) = (   0.0000000   0.3000000   0.0000000), wk =   0.0071429
        k(   11) = (   0.0000000   0.3000000   0.2500000), wk =   0.0071429
        k(   12) = (   0.0000000   0.3000000  -0.5000000), wk =   0.0071429
        k(   13) = (   0.0000000   0.4000000   0.0000000), wk =   0.0071429
        k(   14) = (   0.0000000   0.4000000   0.2500000), wk =   0.0071429
        k(   15) = (   0.0000000   0.4000000  -0.5000000), wk =   0.0071429
        k(   16) = (   0.0000000  -0.5000000   0.0000000), wk =   0.0035714
        k(   17) = (   0.0000000  -0.5000000   0.2500000), wk =   0.0071429
        k(   18) = (   0.0000000  -0.5000000  -0.5000000), wk =   0.0035714
        k(   19) = (   0.0714286   0.0000000   0.0000000), wk =   0.0071429
        k(   20) = (   0.0714286   0.0000000   0.2500000), wk =   0.0142857
        k(   21) = (   0.0714286   0.0000000  -0.5000000), wk =   0.0071429
        k(   22) = (   0.0714286   0.1000000   0.0000000), wk =   0.0142857
        k(   23) = (   0.0714286   0.1000000   0.2500000), wk =   0.0142857
        k(   24) = (   0.0714286   0.1000000  -0.5000000), wk =   0.0142857
        k(   25) = (   0.0714286   0.2000000   0.0000000), wk =   0.0142857
        k(   26) = (   0.0714286   0.2000000   0.2500000), wk =   0.0142857
        k(   27) = (   0.0714286   0.2000000  -0.5000000), wk =   0.0142857
        k(   28) = (   0.0714286   0.3000000   0.0000000), wk =   0.0142857
        k(   29) = (   0.0714286   0.3000000   0.2500000), wk =   0.0142857
        k(   30) = (   0.0714286   0.3000000  -0.5000000), wk =   0.0142857
        k(   31) = (   0.0714286   0.4000000   0.0000000), wk =   0.0142857
        k(   32) = (   0.0714286   0.4000000   0.2500000), wk =   0.0142857
        k(   33) = (   0.0714286   0.4000000  -0.5000000), wk =   0.0142857
        k(   34) = (   0.0714286  -0.5000000   0.0000000), wk =   0.0071429
        k(   35) = (   0.0714286  -0.5000000   0.2500000), wk =   0.0142857
        k(   36) = (   0.0714286  -0.5000000  -0.5000000), wk =   0.0071429
        k(   37) = (   0.1428571   0.0000000   0.0000000), wk =   0.0071429
        k(   38) = (   0.1428571   0.0000000   0.2500000), wk =   0.0142857
        k(   39) = (   0.1428571   0.0000000  -0.5000000), wk =   0.0071429
        k(   40) = (   0.1428571   0.1000000   0.0000000), wk =   0.0142857
        k(   41) = (   0.1428571   0.1000000   0.2500000), wk =   0.0142857
        k(   42) = (   0.1428571   0.1000000  -0.5000000), wk =   0.0142857
        k(   43) = (   0.1428571   0.2000000   0.0000000), wk =   0.0142857
        k(   44) = (   0.1428571   0.2000000   0.2500000), wk =   0.0142857
        k(   45) = (   0.1428571   0.2000000  -0.5000000), wk =   0.0142857
        k(   46) = (   0.1428571   0.3000000   0.0000000), wk =   0.0142857
        k(   47) = (   0.1428571   0.3000000   0.2500000), wk =   0.0142857
        k(   48) = (   0.1428571   0.3000000  -0.5000000), wk =   0.0142857
        k(   49) = (   0.1428571   0.4000000   0.0000000), wk =   0.0142857
        k(   50) = (   0.1428571   0.4000000   0.2500000), wk =   0.0142857
        k(   51) = (   0.1428571   0.4000000  -0.5000000), wk =   0.0142857
        k(   52) = (   0.1428571  -0.5000000   0.0000000), wk =   0.0071429
        k(   53) = (   0.1428571  -0.5000000   0.2500000), wk =   0.0142857
        k(   54) = (   0.1428571  -0.5000000  -0.5000000), wk =   0.0071429
        k(   55) = (   0.2142857   0.0000000   0.0000000), wk =   0.0071429
        k(   56) = (   0.2142857   0.0000000   0.2500000), wk =   0.0142857
        k(   57) = (   0.2142857   0.0000000  -0.5000000), wk =   0.0071429
        k(   58) = (   0.2142857   0.1000000   0.0000000), wk =   0.0142857
        k(   59) = (   0.2142857   0.1000000   0.2500000), wk =   0.0142857
        k(   60) = (   0.2142857   0.1000000  -0.5000000), wk =   0.0142857
        k(   61) = (   0.2142857   0.2000000   0.0000000), wk =   0.0142857
        k(   62) = (   0.2142857   0.2000000   0.2500000), wk =   0.0142857
        k(   63) = (   0.2142857   0.2000000  -0.5000000), wk =   0.0142857
        k(   64) = (   0.2142857   0.3000000   0.0000000), wk =   0.0142857
        k(   65) = (   0.2142857   0.3000000   0.2500000), wk =   0.0142857
        k(   66) = (   0.2142857   0.3000000  -0.5000000), wk =   0.0142857
        k(   67) = (   0.2142857   0.4000000   0.0000000), wk =   0.0142857
        k(   68) = (   0.2142857   0.4000000   0.2500000), wk =   0.0142857
        k(   69) = (   0.2142857   0.4000000  -0.5000000), wk =   0.0142857
        k(   70) = (   0.2142857  -0.5000000   0.0000000), wk =   0.0071429
        k(   71) = (   0.2142857  -0.5000000   0.2500000), wk =   0.0142857
        k(   72) = (   0.2142857  -0.5000000  -0.5000000), wk =   0.0071429
        k(   73) = (   0.2857143   0.0000000   0.0000000), wk =   0.0071429
        k(   74) = (   0.2857143   0.0000000   0.2500000), wk =   0.0142857
        k(   75) = (   0.2857143   0.0000000  -0.5000000), wk =   0.0071429
        k(   76) = (   0.2857143   0.1000000   0.0000000), wk =   0.0142857
        k(   77) = (   0.2857143   0.1000000   0.2500000), wk =   0.0142857
        k(   78) = (   0.2857143   0.1000000  -0.5000000), wk =   0.0142857
        k(   79) = (   0.2857143   0.2000000   0.0000000), wk =   0.0142857
        k(   80) = (   0.2857143   0.2000000   0.2500000), wk =   0.0142857
        k(   81) = (   0.2857143   0.2000000  -0.5000000), wk =   0.0142857
        k(   82) = (   0.2857143   0.3000000   0.0000000), wk =   0.0142857
        k(   83) = (   0.2857143   0.3000000   0.2500000), wk =   0.0142857
        k(   84) = (   0.2857143   0.3000000  -0.5000000), wk =   0.0142857
        k(   85) = (   0.2857143   0.4000000   0.0000000), wk =   0.0142857
        k(   86) = (   0.2857143   0.4000000   0.2500000), wk =   0.0142857
        k(   87) = (   0.2857143   0.4000000  -0.5000000), wk =   0.0142857
        k(   88) = (   0.2857143  -0.5000000   0.0000000), wk =   0.0071429
        k(   89) = (   0.2857143  -0.5000000   0.2500000), wk =   0.0142857
        k(   90) = (   0.2857143  -0.5000000  -0.5000000), wk =   0.0071429
        k(   91) = (   0.3571429   0.0000000   0.0000000), wk =   0.0071429
        k(   92) = (   0.3571429   0.0000000   0.2500000), wk =   0.0142857
        k(   93) = (   0.3571429   0.0000000  -0.5000000), wk =   0.0071429
        k(   94) = (   0.3571429   0.1000000   0.0000000), wk =   0.0142857
        k(   95) = (   0.3571429   0.1000000   0.2500000), wk =   0.0142857
        k(   96) = (   0.3571429   0.1000000  -0.5000000), wk =   0.0142857
        k(   97) = (   0.3571429   0.2000000   0.0000000), wk =   0.0142857
        k(   98) = (   0.3571429   0.2000000   0.2500000), wk =   0.0142857
        k(   99) = (   0.3571429   0.2000000  -0.5000000), wk =   0.0142857
        k(  100) = (   0.3571429   0.3000000   0.0000000), wk =   0.0142857
        k(  101) = (   0.3571429   0.3000000   0.2500000), wk =   0.0142857
        k(  102) = (   0.3571429   0.3000000  -0.5000000), wk =   0.0142857
        k(  103) = (   0.3571429   0.4000000   0.0000000), wk =   0.0142857
        k(  104) = (   0.3571429   0.4000000   0.2500000), wk =   0.0142857
        k(  105) = (   0.3571429   0.4000000  -0.5000000), wk =   0.0142857
        k(  106) = (   0.3571429  -0.5000000   0.0000000), wk =   0.0071429
        k(  107) = (   0.3571429  -0.5000000   0.2500000), wk =   0.0142857
        k(  108) = (   0.3571429  -0.5000000  -0.5000000), wk =   0.0071429
        k(  109) = (   0.4285714   0.0000000   0.0000000), wk =   0.0071429
        k(  110) = (   0.4285714   0.0000000   0.2500000), wk =   0.0142857
        k(  111) = (   0.4285714   0.0000000  -0.5000000), wk =   0.0071429
        k(  112) = (   0.4285714   0.1000000   0.0000000), wk =   0.0142857
        k(  113) = (   0.4285714   0.1000000   0.2500000), wk =   0.0142857
        k(  114) = (   0.4285714   0.1000000  -0.5000000), wk =   0.0142857
        k(  115) = (   0.4285714   0.2000000   0.0000000), wk =   0.0142857
        k(  116) = (   0.4285714   0.2000000   0.2500000), wk =   0.0142857
        k(  117) = (   0.4285714   0.2000000  -0.5000000), wk =   0.0142857
        k(  118) = (   0.4285714   0.3000000   0.0000000), wk =   0.0142857
        k(  119) = (   0.4285714   0.3000000   0.2500000), wk =   0.0142857
        k(  120) = (   0.4285714   0.3000000  -0.5000000), wk =   0.0142857
        k(  121) = (   0.4285714   0.4000000   0.0000000), wk =   0.0142857
        k(  122) = (   0.4285714   0.4000000   0.2500000), wk =   0.0142857
        k(  123) = (   0.4285714   0.4000000  -0.5000000), wk =   0.0142857
        k(  124) = (   0.4285714  -0.5000000   0.0000000), wk =   0.0071429
        k(  125) = (   0.4285714  -0.5000000   0.2500000), wk =   0.0142857
        k(  126) = (   0.4285714  -0.5000000  -0.5000000), wk =   0.0071429
        k(  127) = (  -0.5000000   0.0000000   0.0000000), wk =   0.0035714
        k(  128) = (  -0.5000000   0.0000000   0.2500000), wk =   0.0071429
        k(  129) = (  -0.5000000   0.0000000  -0.5000000), wk =   0.0035714
        k(  130) = (  -0.5000000   0.1000000   0.0000000), wk =   0.0071429
        k(  131) = (  -0.5000000   0.1000000   0.2500000), wk =   0.0071429
        k(  132) = (  -0.5000000   0.1000000  -0.5000000), wk =   0.0071429
        k(  133) = (  -0.5000000   0.2000000   0.0000000), wk =   0.0071429
        k(  134) = (  -0.5000000   0.2000000   0.2500000), wk =   0.0071429
        k(  135) = (  -0.5000000   0.2000000  -0.5000000), wk =   0.0071429
        k(  136) = (  -0.5000000   0.3000000   0.0000000), wk =   0.0071429
        k(  137) = (  -0.5000000   0.3000000   0.2500000), wk =   0.0071429
        k(  138) = (  -0.5000000   0.3000000  -0.5000000), wk =   0.0071429
        k(  139) = (  -0.5000000   0.4000000   0.0000000), wk =   0.0071429
        k(  140) = (  -0.5000000   0.4000000   0.2500000), wk =   0.0071429
        k(  141) = (  -0.5000000   0.4000000  -0.5000000), wk =   0.0071429
        k(  142) = (  -0.5000000  -0.5000000   0.0000000), wk =   0.0035714
        k(  143) = (  -0.5000000  -0.5000000   0.2500000), wk =   0.0071429
        k(  144) = (  -0.5000000  -0.5000000  -0.5000000), wk =   0.0035714
        k(  145) = (   0.0000000   0.1000000  -0.2500000), wk =   0.0071429
        k(  146) = (   0.0000000   0.2000000  -0.2500000), wk =   0.0071429
        k(  147) = (   0.0000000   0.3000000  -0.2500000), wk =   0.0071429
        k(  148) = (   0.0000000   0.4000000  -0.2500000), wk =   0.0071429
        k(  149) = (  -0.0714286   0.1000000  -0.2500000), wk =   0.0142857
        k(  150) = (  -0.0714286   0.2000000  -0.2500000), wk =   0.0142857
        k(  151) = (  -0.0714286   0.3000000  -0.2500000), wk =   0.0142857
        k(  152) = (  -0.0714286   0.4000000  -0.2500000), wk =   0.0142857
        k(  153) = (  -0.1428571   0.1000000  -0.2500000), wk =   0.0142857
        k(  154) = (  -0.1428571   0.2000000  -0.2500000), wk =   0.0142857
        k(  155) = (  -0.1428571   0.3000000  -0.2500000), wk =   0.0142857
        k(  156) = (  -0.1428571   0.4000000  -0.2500000), wk =   0.0142857
        k(  157) = (  -0.2142857   0.1000000  -0.2500000), wk =   0.0142857
        k(  158) = (  -0.2142857   0.2000000  -0.2500000), wk =   0.0142857
        k(  159) = (  -0.2142857   0.3000000  -0.2500000), wk =   0.0142857
        k(  160) = (  -0.2142857   0.4000000  -0.2500000), wk =   0.0142857
        k(  161) = (  -0.2857143   0.1000000  -0.2500000), wk =   0.0142857
        k(  162) = (  -0.2857143   0.2000000  -0.2500000), wk =   0.0142857
        k(  163) = (  -0.2857143   0.3000000  -0.2500000), wk =   0.0142857
        k(  164) = (  -0.2857143   0.4000000  -0.2500000), wk =   0.0142857
        k(  165) = (  -0.3571429   0.1000000  -0.2500000), wk =   0.0142857
        k(  166) = (  -0.3571429   0.2000000  -0.2500000), wk =   0.0142857
        k(  167) = (  -0.3571429   0.3000000  -0.2500000), wk =   0.0142857
        k(  168) = (  -0.3571429   0.4000000  -0.2500000), wk =   0.0142857
        k(  169) = (  -0.4285714   0.1000000  -0.2500000), wk =   0.0142857
        k(  170) = (  -0.4285714   0.2000000  -0.2500000), wk =   0.0142857
        k(  171) = (  -0.4285714   0.3000000  -0.2500000), wk =   0.0142857
        k(  172) = (  -0.4285714   0.4000000  -0.2500000), wk =   0.0142857
        k(  173) = (   0.5000000   0.1000000  -0.2500000), wk =   0.0071429
        k(  174) = (   0.5000000   0.2000000  -0.2500000), wk =   0.0071429
        k(  175) = (   0.5000000   0.3000000  -0.2500000), wk =   0.0071429
        k(  176) = (   0.5000000   0.4000000  -0.2500000), wk =   0.0071429

     Dense  grid:    39043 G-vectors     FFT dimensions: (  25,  36,  90)

     Dynamical RAM for                 wfc:       0.25 MB

     Dynamical RAM for     wfc (w. buffer):       3.46 MB

     Dynamical RAM for           str. fact:       0.10 MB

     Dynamical RAM for           local pot:       0.00 MB

     Dynamical RAM for          nlocal pot:       0.49 MB

     Dynamical RAM for                qrad:       0.17 MB

     Dynamical RAM for          rho,v,vnew:       0.61 MB

     Dynamical RAM for               rhoin:       0.20 MB

     Dynamical RAM for            rho*nmix:       1.59 MB

     Dynamical RAM for           G-vectors:       0.42 MB

     Dynamical RAM for          h,s,v(r/c):       0.29 MB

     Dynamical RAM for          <psi|beta>:       0.01 MB

     Dynamical RAM for                 psi:       0.99 MB

     Dynamical RAM for                hpsi:       0.99 MB

     Dynamical RAM for      wfcinit/wfcrot:       1.90 MB

     Estimated static dynamical RAM per process >       7.77 MB

     Estimated max dynamical RAM per process >      10.05 MB

     Estimated total dynamical RAM >     844.36 MB

     Initial potential from superposition of free atoms

     starting charge   35.76688, renormalised to   40.00000
     Starting wfcs are   72 randomized atomic wfcs

     total cpu time spent up to now is        1.9 secs

     Self-consistent Calculation

     iteration #  1     ecut=    40.00 Ry     beta= 0.70
     Davidson diagonalization with overlap
     ethr =  1.00E-02,  avg # of iterations =  1.9

     Threshold (ethr) on eigenvalues was too large:
     Diagonalizing with lowered threshold

     Davidson diagonalization with overlap
     ethr =  3.48E-04,  avg # of iterations =  2.3

     total cpu time spent up to now is        3.7 secs

     total energy              =    -105.46765189 Ry
     estimated scf accuracy    <       0.17668625 Ry

     iteration #  2     ecut=    40.00 Ry     beta= 0.70
     Davidson diagonalization with overlap
     ethr =  4.42E-04,  avg # of iterations =  2.0

     total cpu time spent up to now is        4.5 secs

     total energy              =    -105.48064780 Ry
     estimated scf accuracy    <       0.06762192 Ry

     iteration #  3     ecut=    40.00 Ry     beta= 0.70
     Davidson diagonalization with overlap
     ethr =  1.69E-04,  avg # of iterations =  2.0

     total cpu time spent up to now is        5.3 secs

     total energy              =    -105.49865063 Ry
     estimated scf accuracy    <       0.00983989 Ry

     iteration #  4     ecut=    40.00 Ry     beta= 0.70
     Davidson diagonalization with overlap
     ethr =  2.46E-05,  avg # of iterations =  2.0

     total cpu time spent up to now is        6.1 secs

     total energy              =    -105.50049331 Ry
     estimated scf accuracy    <       0.00008363 Ry

     iteration #  5     ecut=    40.00 Ry     beta= 0.70
     Davidson diagonalization with overlap
     ethr =  2.09E-07,  avg # of iterations =  3.4

     total cpu time spent up to now is        7.1 secs

     total energy              =    -105.50054665 Ry
     estimated scf accuracy    <       0.00000803 Ry

     iteration #  6     ecut=    40.00 Ry     beta= 0.70
     Davidson diagonalization with overlap
     ethr =  2.01E-08,  avg # of iterations =  2.4

     total cpu time spent up to now is        8.0 secs

     total energy              =    -105.50054845 Ry
     estimated scf accuracy    <       0.00000028 Ry

     iteration #  7     ecut=    40.00 Ry     beta= 0.70
     Davidson diagonalization with overlap
     ethr =  7.06E-10,  avg # of iterations =  3.3

     total cpu time spent up to now is        8.9 secs

     total energy              =    -105.50054856 Ry
     estimated scf accuracy    <          8.0E-09 Ry

     iteration #  8     ecut=    40.00 Ry     beta= 0.70
     Davidson diagonalization with overlap
     ethr =  1.99E-11,  avg # of iterations =  4.1

     total cpu time spent up to now is       10.0 secs

     total energy              =    -105.50054856 Ry
     estimated scf accuracy    <          6.3E-09 Ry

     iteration #  9     ecut=    40.00 Ry     beta= 0.70
     Davidson diagonalization with overlap
     ethr =  1.57E-11,  avg # of iterations =  2.8

     total cpu time spent up to now is       10.8 secs

     total energy              =    -105.50054856 Ry
     estimated scf accuracy    <          3.6E-10 Ry

     iteration # 10     ecut=    40.00 Ry     beta= 0.70
     Davidson diagonalization with overlap
     ethr =  8.92E-13,  avg # of iterations =  3.1

     total cpu time spent up to now is       11.7 secs

     End of self-consistent calculation

          k = 0.0000 0.0000 0.0000 (  4895 PWs)   bands (ev):

    -9.1645  -9.0580  -6.7533  -6.4942  -3.2359  -3.1703  -0.1397   0.4752
     0.9837   1.0352   1.4152   1.6139   2.4696   2.5460   3.7357   4.0428
     4.1704   4.7738   5.3569   6.3875

     occupation numbers 
     1.0000   1.0000   1.0000   1.0000   1.0000   1.0000   1.0000   1.0000
     1.0000   1.0000   1.0000   1.0000   1.0000   1.0000   1.0000   1.0000
     1.0000   1.0000   1.0000   1.0000

          k = 0.0000 0.0000 0.0737 (  4881 PWs)   bands (ev):

    -9.1499  -9.0747  -6.7151  -6.5320  -3.2266  -3.1802  -0.0767   0.3270
     1.0408   1.1897   1.3447   1.5715   2.4802   2.5341   3.8049   4.0622
     4.1522   4.4902   5.5007   6.2241

     occupation numbers 
     1.0000   1.0000   1.0000   1.0000   1.0000   1.0000   1.0000   1.0000
     1.0000   1.0000   1.0000   1.0000   1.0000   1.0000   1.0000   1.0000
     1.0000   1.0000   1.0000   1.0000

          k = 0.0000 0.0000-0.1473 (  4902 PWs)   bands (ev):

    -9.1133  -9.1133  -6.6234  -6.6234  -3.2038  -3.2038   0.0951   0.0951
     1.1861   1.1861   1.4237   1.4237   2.5064   2.5064   4.0597   4.0597
     4.1076   4.1076   5.8528   5.8528

     occupation numbers 
     1.0000   1.0000   1.0000   1.0000   1.0000   1.0000   1.0000   1.0000
     1.0000   1.0000   1.0000   1.0000   1.0000   1.0000   1.0000   1.0000
     1.0000   1.0000   1.0000   1.0000

          k = 0.0000 0.0726 0.0000 (  4881 PWs)   bands (ev):

    -9.1135  -9.0086  -6.8009  -6.5718  -3.2456  -3.2368  -0.2611  -0.0938
     1.2711   1.2919   1.4779   1.8250   2.5091   2.5840   4.0161   4.0644
     4.1334   4.9301   4.9655   5.9351

     occupation numbers 
     1.0000   1.0000   1.0000   1.0000   1.0000   1.0000   1.0000   1.0000
     1.0000   1.0000   1.0000   1.0000   1.0000   1.0000   1.0000   1.0000
     1.0000   1.0000   1.0000   1.0000

          k = 0.0000 0.0726 0.0737 (  4890 PWs)   bands (ev):

    -9.0991  -9.0250  -6.7667  -6.6047  -3.2460  -3.2397  -0.2230  -0.1020
     1.1808   1.2342   1.6156   1.8257   2.5195   2.5723   4.0338   4.1086
     4.1168   4.6703   5.1169   5.8364

     occupation numbers 
     1.0000   1.0000   1.0000   1.0000   1.0000   1.0000   1.0000   1.0000
     1.0000   1.0000   1.0000   1.0000   1.0000   1.0000   1.0000   1.0000
     1.0000   1.0000   1.0000   1.0000

          k = 0.0000 0.0726-0.1473 (  4906 PWs)   bands (ev):

    -9.0631  -9.0631  -6.6851  -6.6851  -3.2446  -3.2446  -0.1475  -0.1475
     1.1539   1.1539   1.7698   1.7698   2.5452   2.5452   4.0759   4.0759
     4.3007   4.3007   5.4830   5.4830

     occupation numbers 
     1.0000   1.0000   1.0000   1.0000   1.0000   1.0000   1.0000   1.0000
     1.0000   1.0000   1.0000   1.0000   1.0000   1.0000   1.0000   1.0000
     1.0000   1.0000   1.0000   1.0000

          k = 0.0000 0.1452 0.0000 (  4867 PWs)   bands (ev):

    -8.9626  -8.8625  -6.9529  -6.7994  -3.3439  -3.2231  -0.8651  -0.6574
     1.2179   1.8882   2.0586   2.3914   2.6255   2.6949   3.9320   4.0217
     4.2420   4.7467   5.3094   5.3808

     occupation numbers 
     1.0000   1.0000   1.0000   1.0000   1.0000   1.0000   1.0000   1.0000
     1.0000   1.0000   1.0000   1.0000   1.0000   1.0000   1.0000   1.0000
     1.0000   1.0000   1.0000   1.0000

          k = 0.0000 0.1452 0.0737 (  4883 PWs)   bands (ev):

    -8.9488  -8.8782  -6.9291  -6.8206  -3.3303  -3.2452  -0.8265  -0.6763
     1.2616   1.6725   2.2236   2.3900   2.6350   2.6842   3.9456   4.0091
     4.4054   4.7643   5.0925   5.2455

     occupation numbers 
     1.0000   1.0000   1.0000   1.0000   1.0000   1.0000   1.0000   1.0000
     1.0000   1.0000   1.0000   1.0000   1.0000   1.0000   1.0000   1.0000
     1.0000   1.0000   1.0000   1.0000

          k = 0.0000 0.1452-0.1473 (  4872 PWs)   bands (ev):

    -8.9145  -8.9145  -6.8736  -6.8736  -3.2920  -3.2920  -0.7419  -0.7419
     1.4178   1.4178   2.3526   2.3526   2.6590   2.6590   3.9780   3.9780
     4.7879   4.7879   4.8884   4.8884

     occupation numbers 
     1.0000   1.0000   1.0000   1.0000   1.0000   1.0000   1.0000   1.0000
     1.0000   1.0000   1.0000   1.0000   1.0000   1.0000   1.0000   1.0000
     1.0000   1.0000   1.0000   1.0000

          k = 0.0000 0.2179 0.0000 (  4863 PWs)   bands (ev):

    -8.7174  -8.6267  -7.2165  -7.1493  -3.3401  -3.0862  -1.6023  -1.2369
     1.3802   2.5785   2.7202   2.8103   2.8697   3.1631   3.5116   3.7856
     3.8371   4.7935   5.3421   5.5832

     occupation numbers 
     1.0000   1.0000   1.0000   1.0000   1.0000   1.0000   1.0000   1.0000
     1.0000   1.0000   1.0000   1.0000   1.0000   1.0000   1.0000   1.0000
     1.0000   1.0000   1.0000   1.0000

          k = 0.0000 0.2179 0.0737 (  4856 PWs)   bands (ev):

    -8.7049  -8.6409  -7.2055  -7.1580  -3.3086  -3.1298  -1.5494  -1.2902
     1.4975   2.2409   2.8186   2.8607   2.9456   3.1538   3.6817   3.7936
     3.8300   4.5807   5.3447   5.4943

     occupation numbers 
     1.0000   1.0000   1.0000   1.0000   1.0000   1.0000   1.0000   1.0000
     1.0000   1.0000   1.0000   1.0000   1.0000   1.0000   1.0000   1.0000
     1.0000   1.0000   1.0000   1.0000

          k = 0.0000 0.2179-0.1473 (  4856 PWs)   bands (ev):

    -8.6737  -8.6737  -7.1806  -7.1806  -3.2251  -3.2251  -1.4202  -1.4202
     1.8183   1.8183   2.8390   2.8390   3.0980   3.0980   3.8124   3.8124
     4.1111   4.1111   5.3824   5.3824

     occupation numbers 
     1.0000   1.0000   1.0000   1.0000   1.0000   1.0000   1.0000   1.0000
     1.0000   1.0000   1.0000   1.0000   1.0000   1.0000   1.0000   1.0000
     1.0000   1.0000   1.0000   1.0000

          k = 0.0000 0.2905 0.0000 (  4874 PWs)   bands (ev):

    -8.3889  -8.3145  -7.5674  -7.5659  -3.1521  -2.8012  -2.2528  -1.8398
     1.7264   2.8028   3.0490   3.0835   3.0925   3.5810   3.5939   3.6151
     4.0533   4.2288   5.3035   5.4050

     occupation numbers 
     1.0000   1.0000   1.0000   1.0000   1.0000   1.0000   1.0000   1.0000
     1.0000   1.0000   1.0000   1.0000   1.0000   1.0000   1.0000   1.0000
     1.0000   1.0000   1.0000   1.0000

          k = 0.0000 0.2905 0.0737 (  4867 PWs)   bands (ev):

    -8.3786  -8.3260  -7.5668  -7.5656  -3.1067  -2.8595  -2.1965  -1.9050
     1.8800   2.7823   2.9757   3.0551   3.0859   3.5832   3.5923   3.7209
     4.0255   4.0377   5.3321   5.3949

     occupation numbers 
     1.0000   1.0000   1.0000   1.0000   1.0000   1.0000   1.0000   1.0000
     1.0000   1.0000   1.0000   1.0000   1.0000   1.0000   1.0000   1.0000
     1.0000   1.0000   1.0000   1.0000

          k = 0.0000 0.2905-0.1473 (  4850 PWs)   bands (ev):

    -8.3528  -8.3528  -7.5657  -7.5657  -2.9895  -2.9895  -2.0552  -2.0552
     2.2832   2.2832   3.0703   3.0703   3.4060   3.4060   3.5879   3.5879
     3.9836   3.9836   5.3692   5.3692

     occupation numbers 
     1.0000   1.0000   1.0000   1.0000   1.0000   1.0000   1.0000   1.0000
     1.0000   1.0000   1.0000   1.0000   1.0000   1.0000   1.0000   1.0000
     1.0000   1.0000   1.0000   1.0000

          k = 0.0000-0.3631 0.0000 (  4910 PWs)   bands (ev):

    -7.9957  -7.9957  -7.9489  -7.9489  -2.7803  -2.7803  -2.3765  -2.3765
     2.2094   2.2094   3.3200   3.3200   3.3397   3.3397   3.6016   3.6016
     4.5780   4.5780   4.8629   4.8629

     occupation numbers 
     1.0000   1.0000   1.0000   1.0000   1.0000   1.0000   1.0000   1.0000
     1.0000   1.0000   1.0000   1.0000   1.0000   1.0000   1.0000   1.0000
     1.0000   1.0000   1.0000   1.0000

          k = 0.0000-0.3631 0.0737 (  4874 PWs)   bands (ev):

    -7.9889  -7.9889  -7.9559  -7.9558  -2.7267  -2.7267  -2.4422  -2.4422
     2.3793   2.3793   3.3230   3.3230   3.3311   3.3311   3.3368   3.3368
     4.6712   4.6712   4.8456   4.8456

     occupation numbers 
     1.0000   1.0000   1.0000   1.0000   1.0000   1.0000   1.0000   1.0000
     1.0000   1.0000   1.0000   1.0000   1.0000   1.0000   1.0000   1.0000
     1.0000   1.0000   1.0000   1.0000

          k = 0.0000-0.3631-0.1473 (  4860 PWs)   bands (ev):

    -7.9725  -7.9725  -7.9725  -7.9725  -2.5904  -2.5904  -2.5904  -2.5904
     2.8157   2.8157   2.8157   2.8157   3.3299   3.3299   3.3299   3.3299
     4.7857   4.7857   4.7858   4.7858

     occupation numbers 
     1.0000   1.0000   1.0000   1.0000   1.0000   1.0000   1.0000   1.0000
     1.0000   1.0000   1.0000   1.0000   1.0000   1.0000   1.0000   1.0000
     1.0000   1.0000   1.0000   1.0000

          k = 0.0714 0.0000 0.0000 (  4885 PWs)   bands (ev):

    -9.1037  -8.9975  -6.6900  -6.4312  -3.2606  -3.2001  -0.0900   0.5191
     0.9534   1.0910   1.3331   1.6655   2.1151   2.1860   3.7057   3.7632
     3.7812   4.7964   5.3816   6.3398

     occupation numbers 
     1.0000   1.0000   1.0000   1.0000   1.0000   1.0000   1.0000   1.0000
     1.0000   1.0000   1.0000   1.0000   1.0000   1.0000   1.0000   1.0000
     1.0000   1.0000   1.0000   1.0000

          k = 0.0714 0.0000 0.0737 (  4884 PWs)   bands (ev):

    -9.0892  -9.0142  -6.6518  -6.4690  -3.2520  -3.2093  -0.0272   0.3736
     1.0041   1.2428   1.2714   1.6228   2.1264   2.1776   3.7112   3.7664
     3.8339   4.5178   5.5208   6.1936

     occupation numbers 
     1.0000   1.0000   1.0000   1.0000   1.0000   1.0000   1.0000   1.0000
     1.0000   1.0000   1.0000   1.0000   1.0000   1.0000   1.0000   1.0000
     1.0000   1.0000   1.0000   1.0000

          k = 0.0714 0.0000-0.1473 (  4898 PWs)   bands (ev):

    -9.0527  -9.0527  -6.5603  -6.5603  -3.2310  -3.2310   0.1438   0.1438
     1.1324   1.1324   1.4750   1.4750   2.1532   2.1532   3.7343   3.7343
     4.0903   4.0903   5.8536   5.8536

     occupation numbers 
     1.0000   1.0000   1.0000   1.0000   1.0000   1.0000   1.0000   1.0000
     1.0000   1.0000   1.0000   1.0000   1.0000   1.0000   1.0000   1.0000
     1.0000   1.0000   1.0000   1.0000

          k = 0.0714 0.0726 0.0000 (  4883 PWs)   bands (ev):

    -9.0529  -8.9483  -6.7383  -6.5097  -3.2633  -3.2574  -0.2204  -0.0679
     1.2479   1.2720   1.4686   1.7844   2.2035   2.3130   3.5982   3.7301
     4.1236   4.9425   4.9962   5.9325

     occupation numbers 
     1.0000   1.0000   1.0000   1.0000   1.0000   1.0000   1.0000   1.0000
     1.0000   1.0000   1.0000   1.0000   1.0000   1.0000   1.0000   1.0000
     1.0000   1.0000   1.0000   1.0000

          k = 0.0714 0.0726 0.0737 (  4881 PWs)   bands (ev):

    -9.0386  -8.9647  -6.7041  -6.5426  -3.2641  -3.2598  -0.1849  -0.0749
     1.1859   1.2047   1.5870   1.7753   2.2252   2.3050   3.6179   3.7130
     4.1592   4.6908   5.1451   5.8330

     occupation numbers 
     1.0000   1.0000   1.0000   1.0000   1.0000   1.0000   1.0000   1.0000
     1.0000   1.0000   1.0000   1.0000   1.0000   1.0000   1.0000   1.0000
     1.0000   1.0000   1.0000   1.0000

          k = 0.0714 0.0726-0.1473 (  4888 PWs)   bands (ev):

    -9.0026  -9.0026  -6.6228  -6.6227  -3.2636  -3.2636  -0.1155  -0.1155
     1.1480   1.1480   1.7180   1.7180   2.2722   2.2722   3.6678   3.6678
     4.3339   4.3339   5.4980   5.4980

     occupation numbers 
     1.0000   1.0000   1.0000   1.0000   1.0000   1.0000   1.0000   1.0000
     1.0000   1.0000   1.0000   1.0000   1.0000   1.0000   1.0000   1.0000
     1.0000   1.0000   1.0000   1.0000

          k = 0.0714 0.1452 0.0000 (  4876 PWs)   bands (ev):

    -8.9023  -8.8025  -6.8920  -6.7394  -3.3460  -3.2261  -0.8369  -0.6301
     1.2245   1.6760   2.0119   2.0551   2.5228   2.7563   3.4879   3.5876
     4.2790   4.7284   5.2800   5.3861

     occupation numbers 
     1.0000   1.0000   1.0000   1.0000   1.0000   1.0000   1.0000   1.0000
     1.0000   1.0000   1.0000   1.0000   1.0000   1.0000   1.0000   1.0000
     1.0000   1.0000   1.0000   1.0000

          k = 0.0714 0.1452 0.0737 (  4876 PWs)   bands (ev):

    -8.8886  -8.8181  -6.8684  -6.7605  -3.3323  -3.2479  -0.7994  -0.6503
     1.2682   1.5914   2.0098   2.0257   2.5986   2.7482   3.4988   3.5723
     4.4447   4.7454   5.0773   5.2517

     occupation numbers 
     1.0000   1.0000   1.0000   1.0000   1.0000   1.0000   1.0000   1.0000
     1.0000   1.0000   1.0000   1.0000   1.0000   1.0000   1.0000   1.0000
     1.0000   1.0000   1.0000   1.0000

          k = 0.0714 0.1452-0.1473 (  4876 PWs)   bands (ev):

    -8.8543  -8.8543  -6.8132  -6.8132  -3.2941  -3.2941  -0.7165  -0.7165
     1.4084   1.4084   2.0083   2.0083   2.7022   2.7022   3.5341   3.5341
     4.8119   4.8119   4.8767   4.8767

     occupation numbers 
     1.0000   1.0000   1.0000   1.0000   1.0000   1.0000   1.0000   1.0000
     1.0000   1.0000   1.0000   1.0000   1.0000   1.0000   1.0000   1.0000
     1.0000   1.0000   1.0000   1.0000

          k = 0.0714 0.2179 0.0000 (  4873 PWs)   bands (ev):

    -8.6576  -8.5672  -7.1573  -7.0908  -3.3259  -3.0757  -1.5710  -1.2128
     1.4114   2.0614   2.2516   2.5788   3.1435   3.3185   3.3653   3.4378
     3.5669   4.8080   5.2292   5.5242

     occupation numbers 
     1.0000   1.0000   1.0000   1.0000   1.0000   1.0000   1.0000   1.0000
     1.0000   1.0000   1.0000   1.0000   1.0000   1.0000   1.0000   1.0000
     1.0000   1.0000   1.0000   1.0000

          k = 0.0714 0.2179 0.0737 (  4867 PWs)   bands (ev):

    -8.6452  -8.5813  -7.1464  -7.0995  -3.2946  -3.1183  -1.5193  -1.2653
     1.5214   2.0212   2.2484   2.4069   3.2477   3.3121   3.3645   3.4390
     3.7383   4.6086   5.2385   5.4261

     occupation numbers 
     1.0000   1.0000   1.0000   1.0000   1.0000   1.0000   1.0000   1.0000
     1.0000   1.0000   1.0000   1.0000   1.0000   1.0000   1.0000   1.0000
     1.0000   1.0000   1.0000   1.0000

          k = 0.0714 0.2179-0.1473 (  4872 PWs)   bands (ev):

    -8.6140  -8.6140  -7.1218  -7.1218  -3.2121  -3.2121  -1.3929  -1.3929
     1.7986   1.7986   2.2620   2.2620   3.3152   3.3152   3.4016   3.4016
     4.1595   4.1595   5.2934   5.2934

     occupation numbers 
     1.0000   1.0000   1.0000   1.0000   1.0000   1.0000   1.0000   1.0000
     1.0000   1.0000   1.0000   1.0000   1.0000   1.0000   1.0000   1.0000
     1.0000   1.0000   1.0000   1.0000

          k = 0.0714 0.2905 0.0000 (  4870 PWs)   bands (ev):

    -8.3298  -8.2557  -7.5094  -7.5076  -3.1271  -2.7817  -2.2204  -1.8151
     1.7672   2.4011   2.5173   2.8510   3.0144   3.0840   3.1483   3.8814
     4.2630   4.2887   5.3311   5.3559

     occupation numbers 
     1.0000   1.0000   1.0000   1.0000   1.0000   1.0000   1.0000   1.0000
     1.0000   1.0000   1.0000   1.0000   1.0000   1.0000   1.0000   1.0000
     1.0000   1.0000   1.0000   1.0000

          k = 0.0714 0.2905 0.0737 (  4869 PWs)   bands (ev):

    -8.3195  -8.2671  -7.5087  -7.5073  -3.0823  -2.8390  -2.1652  -1.8790
     1.9108   2.3922   2.5174   2.8491   2.9781   3.0743   3.1253   3.8637
     4.1800   4.2530   5.3326   5.3524

     occupation numbers 
     1.0000   1.0000   1.0000   1.0000   1.0000   1.0000   1.0000   1.0000
     1.0000   1.0000   1.0000   1.0000   1.0000   1.0000   1.0000   1.0000
     1.0000   1.0000   1.0000   1.0000

          k = 0.0714 0.2905-0.1473 (  4862 PWs)   bands (ev):

    -8.2938  -8.2938  -7.5075  -7.5075  -2.9667  -2.9667  -2.0264  -2.0264
     2.2456   2.2456   2.5552   2.5552   3.0529   3.0529   3.4734   3.4734
     4.2123   4.2123   5.3402   5.3402

     occupation numbers 
     1.0000   1.0000   1.0000   1.0000   1.0000   1.0000   1.0000   1.0000
     1.0000   1.0000   1.0000   1.0000   1.0000   1.0000   1.0000   1.0000
     1.0000   1.0000   1.0000   1.0000

          k = 0.0714-0.3631 0.0000 (  4900 PWs)   bands (ev):

    -7.9372  -7.9372  -7.8905  -7.8905  -2.7497  -2.7497  -2.3528  -2.3527
     2.2534   2.2534   2.7357   2.7357   2.8063   2.8063   3.6195   3.6195
     4.7793   4.7793   4.9526   4.9526

     occupation numbers 
     1.0000   1.0000   1.0000   1.0000   1.0000   1.0000   1.0000   1.0000
     1.0000   1.0000   1.0000   1.0000   1.0000   1.0000   1.0000   1.0000
     1.0000   1.0000   1.0000   1.0000

          k = 0.0714-0.3631 0.0737 (  4876 PWs)   bands (ev):

    -7.9305  -7.9305  -7.8974  -7.8974  -2.6969  -2.6969  -2.4172  -2.4172
     2.4093   2.4093   2.7350   2.7350   2.8118   2.8118   3.3798   3.3798
     4.8391   4.8391   4.9447   4.9447

     occupation numbers 
     1.0000   1.0000   1.0000   1.0000   1.0000   1.0000   1.0000   1.0000
     1.0000   1.0000   1.0000   1.0000   1.0000   1.0000   1.0000   1.0000
     1.0000   1.0000   1.0000   1.0000

          k = 0.0714-0.3631-0.1473 (  4872 PWs)   bands (ev):

    -7.9141  -7.9141  -7.9141  -7.9141  -2.5628  -2.5628  -2.5628  -2.5628
     2.6948   2.6948   2.6948   2.6948   2.9398   2.9398   2.9398   2.9398
     4.9120   4.9120   4.9120   4.9120

     occupation numbers 
     1.0000   1.0000   1.0000   1.0000   1.0000   1.0000   1.0000   1.0000
     1.0000   1.0000   1.0000   1.0000   1.0000   1.0000   1.0000   1.0000
     1.0000   1.0000   1.0000   1.0000

          k = 0.1429 0.0000 0.0000 (  4881 PWs)   bands (ev):

    -8.9222  -8.8169  -6.5003  -6.2425  -3.3625  -3.3192   0.0564   0.6465
     0.7753   0.9688   1.2570   1.4059   1.4648   1.8176   3.0752   3.1792
     3.8306   4.8418   5.3885   6.1468

     occupation numbers 
     1.0000   1.0000   1.0000   1.0000   1.0000   1.0000   1.0000   1.0000
     1.0000   1.0000   1.0000   1.0000   1.0000   1.0000   1.0000   1.0000
     1.0000   1.0000   1.0000   1.0000

          k = 0.1429 0.0000 0.0737 (  4882 PWs)   bands (ev):

    -8.9077  -8.8334  -6.4624  -6.2802  -3.3563  -3.3257   0.1183   0.5095
     0.7999   0.9354   1.4001   1.4211   1.4647   1.7739   3.0785   3.1489
     3.9056   4.5820   5.5075   6.0407

     occupation numbers 
     1.0000   1.0000   1.0000   1.0000   1.0000   1.0000   1.0000   1.0000
     1.0000   1.0000   1.0000   1.0000   1.0000   1.0000   1.0000   1.0000
     1.0000   1.0000   1.0000   1.0000

          k = 0.1429 0.0000-0.1473 (  4876 PWs)   bands (ev):

    -8.8716  -8.8716  -6.3711  -6.3711  -3.3412  -3.3412   0.2864   0.2864
     0.8635   0.8635   1.4503   1.4503   1.6264   1.6264   3.1007   3.1007
     4.1660   4.1660   5.7803   5.7803

     occupation numbers 
     1.0000   1.0000   1.0000   1.0000   1.0000   1.0000   1.0000   1.0000
     1.0000   1.0000   1.0000   1.0000   1.0000   1.0000   1.0000   1.0000
     1.0000   1.0000   1.0000   1.0000

          k = 0.1429 0.0726 0.0000 (  4874 PWs)   bands (ev):

    -8.8717  -8.7679  -6.5510  -6.3244  -3.3485  -3.3441  -0.1196  -0.0249
     1.0137   1.0714   1.3170   1.3717   1.8356   2.1916   2.9860   3.0115
     4.1340   4.9464   5.0418   5.8615

     occupation numbers 
     1.0000   1.0000   1.0000   1.0000   1.0000   1.0000   1.0000   1.0000
     1.0000   1.0000   1.0000   1.0000   1.0000   1.0000   1.0000   1.0000
     1.0000   1.0000   1.0000   1.0000

          k = 0.1429 0.0726 0.0737 (  4879 PWs)   bands (ev):

    -8.8575  -8.7842  -6.5171  -6.3570  -3.3491  -3.3461  -0.0954  -0.0285
     1.0168   1.0695   1.3055   1.3150   1.9291   2.1648   2.9884   3.0079
     4.1769   4.7138   5.1761   5.7677

     occupation numbers 
     1.0000   1.0000   1.0000   1.0000   1.0000   1.0000   1.0000   1.0000
     1.0000   1.0000   1.0000   1.0000   1.0000   1.0000   1.0000   1.0000
     1.0000   1.0000   1.0000   1.0000

          k = 0.1429 0.0726-0.1473 (  4882 PWs)   bands (ev):

    -8.8218  -8.8218  -6.4364  -6.4364  -3.3489  -3.3489  -0.0514  -0.0514
     1.0414   1.0414   1.2842   1.2842   2.0743   2.0743   2.9986   2.9986
     4.3637   4.3637   5.4845   5.4845

     occupation numbers 
     1.0000   1.0000   1.0000   1.0000   1.0000   1.0000   1.0000   1.0000
     1.0000   1.0000   1.0000   1.0000   1.0000   1.0000   1.0000   1.0000
     1.0000   1.0000   1.0000   1.0000

          k = 0.1429 0.1452 0.0000 (  4868 PWs)   bands (ev):

    -8.7221  -8.6232  -6.7106  -6.5609  -3.3784  -3.2609  -0.7767  -0.5781
     1.0387   1.1700   1.2578   1.9117   2.5339   2.7218   2.8616   2.8707
     4.3654   4.5851   5.1559   5.3707

     occupation numbers 
     1.0000   1.0000   1.0000   1.0000   1.0000   1.0000   1.0000   1.0000
     1.0000   1.0000   1.0000   1.0000   1.0000   1.0000   1.0000   1.0000
     1.0000   1.0000   1.0000   1.0000

          k = 0.1429 0.1452 0.0737 (  4878 PWs)   bands (ev):

    -8.7086  -8.6387  -6.6873  -6.5816  -3.3645  -3.2817  -0.7438  -0.6019
     1.0572   1.1500   1.3308   1.7792   2.5831   2.6861   2.8808   2.8972
     4.5215   4.6126   4.9742   5.2497

     occupation numbers 
     1.0000   1.0000   1.0000   1.0000   1.0000   1.0000   1.0000   1.0000
     1.0000   1.0000   1.0000   1.0000   1.0000   1.0000   1.0000   1.0000
     1.0000   1.0000   1.0000   1.0000

          k = 0.1429 0.1452-0.1473 (  4874 PWs)   bands (ev):

    -8.6745  -8.6745  -6.6332  -6.6332  -3.3266  -3.3266  -0.6685  -0.6685
     1.1030   1.1030   1.5305   1.5305   2.6388   2.6388   2.9103   2.9103
     4.7262   4.7262   4.8970   4.8970

     occupation numbers 
     1.0000   1.0000   1.0000   1.0000   1.0000   1.0000   1.0000   1.0000
     1.0000   1.0000   1.0000   1.0000   1.0000   1.0000   1.0000   1.0000
     1.0000   1.0000   1.0000   1.0000

          k = 0.1429 0.2179 0.0000 (  4882 PWs)   bands (ev):

    -8.4792  -8.3896  -6.9815  -6.9173  -3.3048  -3.0671  -1.4964  -1.1661
     1.1654   1.3516   1.4453   2.1969   2.4605   2.8219   3.3339   3.5475
     3.7454   4.8420   4.8787   5.2849

     occupation numbers 
     1.0000   1.0000   1.0000   1.0000   1.0000   1.0000   1.0000   1.0000
     1.0000   1.0000   1.0000   1.0000   1.0000   1.0000   1.0000   1.0000
     1.0000   1.0000   1.0000   1.0000

          k = 0.1429 0.2179 0.0737 (  4869 PWs)   bands (ev):

    -8.4668  -8.4035  -6.9709  -6.9256  -3.2745  -3.1070  -1.4491  -1.2153
     1.1823   1.2896   1.6015   2.1300   2.4596   2.6643   3.4431   3.5802
     3.8778   4.6671   4.9043   5.1755

     occupation numbers 
     1.0000   1.0000   1.0000   1.0000   1.0000   1.0000   1.0000   1.0000
     1.0000   1.0000   1.0000   1.0000   1.0000   1.0000   1.0000   1.0000
     1.0000   1.0000   1.0000   1.0000

          k = 0.1429 0.2179-0.1473 (  4870 PWs)   bands (ev):

    -8.4360  -8.4360  -6.9472  -6.9472  -3.1956  -3.1956  -1.3333  -1.3333
     1.2272   1.2272   1.8929   1.8929   2.5016   2.5016   3.5573   3.5573
     4.2619   4.2619   5.0009   5.0009

     occupation numbers 
     1.0000   1.0000   1.0000   1.0000   1.0000   1.0000   1.0000   1.0000
     1.0000   1.0000   1.0000   1.0000   1.0000   1.0000   1.0000   1.0000
     1.0000   1.0000   1.0000   1.0000

          k = 0.1429 0.2905 0.0000 (  4875 PWs)   bands (ev):

    -8.1536  -8.0801  -7.3369  -7.3342  -3.0704  -2.7447  -2.1402  -1.7634
     1.4037   1.5571   1.8143   2.0235   2.1934   2.9603   3.1678   3.9536
     4.3637   4.4708   4.9650   5.2189

     occupation numbers 
     1.0000   1.0000   1.0000   1.0000   1.0000   1.0000   1.0000   1.0000
     1.0000   1.0000   1.0000   1.0000   1.0000   1.0000   1.0000   1.0000
     1.0000   1.0000   1.0000   1.0000

          k = 0.1429 0.2905 0.0737 (  4873 PWs)   bands (ev):

    -8.1433  -8.0914  -7.3361  -7.3341  -3.0276  -2.7980  -2.0885  -1.8226
     1.4179   1.5132   1.9326   2.0239   2.2318   2.9486   3.1340   3.8843
     4.3683   4.4018   4.9886   5.1618

     occupation numbers 
     1.0000   1.0000   1.0000   1.0000   1.0000   1.0000   1.0000   1.0000
     1.0000   1.0000   1.0000   1.0000   1.0000   1.0000   1.0000   1.0000
     1.0000   1.0000   1.0000   1.0000

          k = 0.1429 0.2905-0.1473 (  4862 PWs)   bands (ev):

    -8.1179  -8.1179  -7.3346  -7.3346  -2.9180  -2.9180  -1.9592  -1.9592
     1.4569   1.4569   2.0173   2.0173   2.5222   2.5222   3.5345   3.5345
     4.3728   4.3728   5.0598   5.0598

     occupation numbers 
     1.0000   1.0000   1.0000   1.0000   1.0000   1.0000   1.0000   1.0000
     1.0000   1.0000   1.0000   1.0000   1.0000   1.0000   1.0000   1.0000
     1.0000   1.0000   1.0000   1.0000

          k = 0.1429-0.3631 0.0000 (  4882 PWs)   bands (ev):

    -7.7633  -7.7633  -7.7167  -7.7167  -2.6746  -2.6746  -2.3024  -2.3024
     1.7088   1.7088   1.8217   1.8217   2.3810   2.3810   3.6402   3.6402
     4.8160   4.8160   4.8866   4.8866

     occupation numbers 
     1.0000   1.0000   1.0000   1.0000   1.0000   1.0000   1.0000   1.0000
     1.0000   1.0000   1.0000   1.0000   1.0000   1.0000   1.0000   1.0000
     1.0000   1.0000   1.0000   1.0000

          k = 0.1429-0.3631 0.0737 (  4854 PWs)   bands (ev):

    -7.7566  -7.7566  -7.7236  -7.7236  -2.6246  -2.6246  -2.3622  -2.3622
     1.7191   1.7191   1.7918   1.7918   2.5593   2.5593   3.4322   3.4322
     4.8299   4.8299   4.8828   4.8828

     occupation numbers 
     1.0000   1.0000   1.0000   1.0000   1.0000   1.0000   1.0000   1.0000
     1.0000   1.0000   1.0000   1.0000   1.0000   1.0000   1.0000   1.0000
     1.0000   1.0000   1.0000   1.0000

          k = 0.1429-0.3631-0.1473 (  4860 PWs)   bands (ev):

    -7.7403  -7.7403  -7.7403  -7.7403  -2.4982  -2.4982  -2.4982  -2.4982
     1.7482   1.7482   1.7482   1.7482   2.9803   2.9803   2.9803   2.9803
     4.8604   4.8604   4.8604   4.8604

     occupation numbers 
     1.0000   1.0000   1.0000   1.0000   1.0000   1.0000   1.0000   1.0000
     1.0000   1.0000   1.0000   1.0000   1.0000   1.0000   1.0000   1.0000
     1.0000   1.0000   1.0000   1.0000

          k = 0.2143 0.0000 0.0000 (  4869 PWs)   bands (ev):

    -8.6216  -8.5179  -6.1852  -5.9290  -3.6170  -3.6041   0.1931   0.2313
     0.2886   0.7983   0.8362   0.8419   1.5272   2.0612   2.6709   2.9850
     3.8850   4.8255   5.3222   5.7847

     occupation numbers 
     1.0000   1.0000   1.0000   1.0000   1.0000   1.0000   1.0000   1.0000
     1.0000   1.0000   1.0000   1.0000   1.0000   1.0000   1.0000   1.0000
     1.0000   1.0000   1.0000   1.0000

          k = 0.2143 0.0000 0.0737 (  4879 PWs)   bands (ev):

    -8.6073  -8.5341  -6.1475  -5.9665  -3.6151  -3.6060   0.1942   0.2206
     0.3487   0.7201   0.8126   0.8384   1.6552   2.0158   2.7045   2.9248
     3.9662   4.6089   5.4025   5.7272

     occupation numbers 
     1.0000   1.0000   1.0000   1.0000   1.0000   1.0000   1.0000   1.0000
     1.0000   1.0000   1.0000   1.0000   1.0000   1.0000   1.0000   1.0000
     1.0000   1.0000   1.0000   1.0000

          k = 0.2143 0.0000-0.1473 (  4868 PWs)   bands (ev):

    -8.5717  -8.5717  -6.0569  -6.0569  -3.6105  -3.6105   0.2027   0.2027
     0.5107   0.5107   0.8337   0.8337   1.8694   1.8694   2.8016   2.8016
     4.2273   4.2273   5.5762   5.5762

     occupation numbers 
     1.0000   1.0000   1.0000   1.0000   1.0000   1.0000   1.0000   1.0000
     1.0000   1.0000   1.0000   1.0000   1.0000   1.0000   1.0000   1.0000
     1.0000   1.0000   1.0000   1.0000

          k = 0.2143 0.0726 0.0000 (  4866 PWs)   bands (ev):

    -8.5718  -8.4696  -6.2414  -6.0188  -3.5901  -3.5646  -0.1669  -0.1588
     0.5806   0.5834   0.7122   1.1076   1.9416   2.3703   2.6374   2.7459
     4.0623   4.8506   5.0499   5.6279

     occupation numbers 
     1.0000   1.0000   1.0000   1.0000   1.0000   1.0000   1.0000   1.0000
     1.0000   1.0000   1.0000   1.0000   1.0000   1.0000   1.0000   1.0000
     1.0000   1.0000   1.0000   1.0000

          k = 0.2143 0.0726 0.0737 (  4875 PWs)   bands (ev):

    -8.5578  -8.4856  -6.2081  -6.0507  -3.5873  -3.5694  -0.1688  -0.1638
     0.6037   0.6224   0.7283   1.0172   2.0134   2.3058   2.6646   2.7446
     4.1183   4.6544   5.1527   5.5659

     occupation numbers 
     1.0000   1.0000   1.0000   1.0000   1.0000   1.0000   1.0000   1.0000
     1.0000   1.0000   1.0000   1.0000   1.0000   1.0000   1.0000   1.0000
     1.0000   1.0000   1.0000   1.0000

          k = 0.2143 0.0726-0.1473 (  4882 PWs)   bands (ev):

    -8.5227  -8.5227  -6.1287  -6.1287  -3.5793  -3.5793  -0.1696  -0.1696
     0.6404   0.6404   0.8412   0.8412   2.1610   2.1610   2.7182   2.7182
     4.3231   4.3231   5.3766   5.3766

     occupation numbers 
     1.0000   1.0000   1.0000   1.0000   1.0000   1.0000   1.0000   1.0000
     1.0000   1.0000   1.0000   1.0000   1.0000   1.0000   1.0000   1.0000
     1.0000   1.0000   1.0000   1.0000

          k = 0.2143 0.1452 0.0000 (  4874 PWs)   bands (ev):

    -8.4243  -8.3270  -6.4135  -6.2701  -3.5223  -3.4055  -0.7992  -0.6563
     0.3777   0.5679   0.8891   1.3453   2.3636   2.6306   2.6839   3.0104
     4.2508   4.4727   4.8793   5.2762

     occupation numbers 
     1.0000   1.0000   1.0000   1.0000   1.0000   1.0000   1.0000   1.0000
     1.0000   1.0000   1.0000   1.0000   1.0000   1.0000   1.0000   1.0000
     1.0000   1.0000   1.0000   1.0000

          k = 0.2143 0.1452 0.0737 (  4865 PWs)   bands (ev):

    -8.4109  -8.3422  -6.3911  -6.2898  -3.5076  -3.4252  -0.7796  -0.6788
     0.4050   0.5351   0.9739   1.2919   2.3425   2.4629   2.8540   3.0131
     4.2922   4.6124   4.7110   5.1936

     occupation numbers 
     1.0000   1.0000   1.0000   1.0000   1.0000   1.0000   1.0000   1.0000
     1.0000   1.0000   1.0000   1.0000   1.0000   1.0000   1.0000   1.0000
     1.0000   1.0000   1.0000   1.0000

          k = 0.2143 0.1452-0.1473 (  4874 PWs)   bands (ev):

    -8.3775  -8.3774  -6.3392  -6.3392  -3.4689  -3.4689  -0.7307  -0.7307
     0.4692   0.4692   1.1464   1.1464   2.3508   2.3508   2.9783   2.9783
     4.4464   4.4464   4.9238   4.9238

     occupation numbers 
     1.0000   1.0000   1.0000   1.0000   1.0000   1.0000   1.0000   1.0000
     1.0000   1.0000   1.0000   1.0000   1.0000   1.0000   1.0000   1.0000
     1.0000   1.0000   1.0000   1.0000

          k = 0.2143 0.2179 0.0000 (  4857 PWs)   bands (ev):

    -8.1848  -8.0967  -6.6952  -6.6355  -3.3515  -3.1383  -1.4618  -1.2100
     0.3560   0.5605   1.1370   1.2965   2.0880   2.8136   3.4257   3.5207
     3.9788   4.3228   4.8835   4.8927

     occupation numbers 
     1.0000   1.0000   1.0000   1.0000   1.0000   1.0000   1.0000   1.0000
     1.0000   1.0000   1.0000   1.0000   1.0000   1.0000   1.0000   1.0000
     1.0000   1.0000   1.0000   1.0000

          k = 0.2143 0.2179 0.0737 (  4868 PWs)   bands (ev):

    -8.1726  -8.1104  -6.6854  -6.6432  -3.3235  -3.1729  -1.4262  -1.2483
     0.3814   0.5228   1.1866   1.2879   2.1445   2.6497   3.4946   3.5516
     4.0970   4.3765   4.6758   4.8357

     occupation numbers 
     1.0000   1.0000   1.0000   1.0000   1.0000   1.0000   1.0000   1.0000
     1.0000   1.0000   1.0000   1.0000   1.0000   1.0000   1.0000   1.0000
     1.0000   1.0000   1.0000   1.0000

          k = 0.2143 0.2179-0.1473 (  4870 PWs)   bands (ev):

    -8.1423  -8.1423  -6.6632  -6.6632  -3.2515  -3.2515  -1.3385  -1.3385
     0.4470   0.4470   1.2556   1.2556   2.3523   2.3523   3.5630   3.5630
     4.3800   4.3800   4.5697   4.5697

     occupation numbers 
     1.0000   1.0000   1.0000   1.0000   1.0000   1.0000   1.0000   1.0000
     1.0000   1.0000   1.0000   1.0000   1.0000   1.0000   1.0000   1.0000
     1.0000   1.0000   1.0000   1.0000

          k = 0.2143 0.2905 0.0000 (  4864 PWs)   bands (ev):

    -7.8637  -7.7915  -7.0559  -7.0517  -3.0503  -2.7679  -2.0822  -1.7762
     0.4945   0.6925   1.0444   1.1402   2.1467   3.0855   3.1611   3.7990
     4.2434   4.3690   4.6922   4.8983

     occupation numbers 
     1.0000   1.0000   1.0000   1.0000   1.0000   1.0000   1.0000   1.0000
     1.0000   1.0000   1.0000   1.0000   1.0000   1.0000   1.0000   1.0000
     1.0000   1.0000   1.0000   1.0000

          k = 0.2143 0.2905 0.0737 (  4866 PWs)   bands (ev):

    -7.8536  -7.8026  -7.0549  -7.0519  -3.0121  -2.8128  -2.0395  -1.8234
     0.5174   0.6542   1.0559   1.1251   2.2818   2.9932   3.2276   3.7488
     4.2784   4.4232   4.5692   4.7950

     occupation numbers 
     1.0000   1.0000   1.0000   1.0000   1.0000   1.0000   1.0000   1.0000
     1.0000   1.0000   1.0000   1.0000   1.0000   1.0000   1.0000   1.0000
     1.0000   1.0000   1.0000   1.0000

          k = 0.2143 0.2905-0.1473 (  4844 PWs)   bands (ev):

    -7.8286  -7.8286  -7.0530  -7.0530  -2.9158  -2.9158  -1.9336  -1.9336
     0.5789   0.5789   1.0878   1.0878   2.6239   2.6240   3.5310   3.5310
     4.3842   4.3842   4.5835   4.5835

     occupation numbers 
     1.0000   1.0000   1.0000   1.0000   1.0000   1.0000   1.0000   1.0000
     1.0000   1.0000   1.0000   1.0000   1.0000   1.0000   1.0000   1.0000
     1.0000   1.0000   1.0000   1.0000

          k = 0.2143-0.3631 0.0000 (  4862 PWs)   bands (ev):

    -7.4785  -7.4785  -7.4323  -7.4323  -2.6209  -2.6209  -2.3067  -2.3067
     0.7452   0.7452   0.9184   0.9184   2.5454   2.5454   3.5573   3.5573
     4.3859   4.3859   4.8317   4.8317

     occupation numbers 
     1.0000   1.0000   1.0000   1.0000   1.0000   1.0000   1.0000   1.0000
     1.0000   1.0000   1.0000   1.0000   1.0000   1.0000   1.0000   1.0000
     1.0000   1.0000   1.0000   1.0000

          k = 0.2143-0.3631 0.0737 (  4864 PWs)   bands (ev):

    -7.4719  -7.4719  -7.4392  -7.4392  -2.5778  -2.5778  -2.3559  -2.3559
     0.7641   0.7641   0.8838   0.8838   2.6996   2.6996   3.4148   3.4148
     4.4313   4.4313   4.7336   4.7336

     occupation numbers 
     1.0000   1.0000   1.0000   1.0000   1.0000   1.0000   1.0000   1.0000
     1.0000   1.0000   1.0000   1.0000   1.0000   1.0000   1.0000   1.0000
     1.0000   1.0000   1.0000   1.0000

          k = 0.2143-0.3631-0.1473 (  4852 PWs)   bands (ev):

    -7.4557  -7.4557  -7.4557  -7.4557  -2.4698  -2.4698  -2.4698  -2.4698
     0.8168   0.8168   0.8168   0.8168   3.0615   3.0615   3.0615   3.0615
     4.5590   4.5590   4.5590   4.5590

     occupation numbers 
     1.0000   1.0000   1.0000   1.0000   1.0000   1.0000   1.0000   1.0000
     1.0000   1.0000   1.0000   1.0000   1.0000   1.0000   1.0000   1.0000
     1.0000   1.0000   1.0000   1.0000

          k = 0.2857 0.0000 0.0000 (  4867 PWs)   bands (ev):

    -8.2054  -8.1041  -5.7461  -5.4924  -4.1131  -4.0899  -0.8081  -0.6521
     0.5024   0.5179   0.5813   1.0696   1.8901   2.3767   2.6794   3.0664
     3.8327   4.6128   5.1456   5.2695

     occupation numbers 
     1.0000   1.0000   1.0000   1.0000   1.0000   1.0000   1.0000   1.0000
     1.0000   1.0000   1.0000   1.0000   1.0000   1.0000   1.0000   1.0000
     1.0000   1.0000   1.0000   1.0000

          k = 0.2857 0.0000 0.0737 (  4870 PWs)   bands (ev):

    -8.1915  -8.1199  -5.7088  -5.5295  -4.1097  -4.0933  -0.7875  -0.6775
     0.5085   0.5189   0.6375   0.9711   1.9942   2.3287   2.7279   3.0004
     3.9176   4.4660   5.1705   5.2565

     occupation numbers 
     1.0000   1.0000   1.0000   1.0000   1.0000   1.0000   1.0000   1.0000
     1.0000   1.0000   1.0000   1.0000   1.0000   1.0000   1.0000   1.0000
     1.0000   1.0000   1.0000   1.0000

          k = 0.2857 0.0000-0.1473 (  4872 PWs)   bands (ev):

    -8.1567  -8.1567  -5.6191  -5.6191  -4.1016  -4.1015  -0.7349  -0.7349
     0.5173   0.5173   0.7867   0.7867   2.1856   2.1856   2.8557   2.8557
     4.1615   4.1615   5.2192   5.2192

     occupation numbers 
     1.0000   1.0000   1.0000   1.0000   1.0000   1.0000   1.0000   1.0000
     1.0000   1.0000   1.0000   1.0000   1.0000   1.0000   1.0000   1.0000
     1.0000   1.0000   1.0000   1.0000

          k = 0.2857 0.0726 0.0000 (  4869 PWs)   bands (ev):

    -8.1569  -8.0571  -5.8165  -5.6037  -4.0508  -3.9927  -0.9082  -0.7972
     0.3009   0.3928   0.6355   1.0588   2.2273   2.6253   2.6341   2.8421
     3.8387   4.5820   4.9705   5.2099

     occupation numbers 
     1.0000   1.0000   1.0000   1.0000   1.0000   1.0000   1.0000   1.0000
     1.0000   1.0000   1.0000   1.0000   1.0000   1.0000   1.0000   1.0000
     1.0000   1.0000   1.0000   1.0000

          k = 0.2857 0.0726 0.0737 (  4861 PWs)   bands (ev):

    -8.1432  -8.0727  -5.7845  -5.6341  -4.0432  -4.0022  -0.8942  -0.8161
     0.3131   0.3703   0.7088   0.9995   2.2699   2.5456   2.6836   2.8364
     3.9108   4.4283   5.0245   5.1973

     occupation numbers 
     1.0000   1.0000   1.0000   1.0000   1.0000   1.0000   1.0000   1.0000
     1.0000   1.0000   1.0000   1.0000   1.0000   1.0000   1.0000   1.0000
     1.0000   1.0000   1.0000   1.0000

          k = 0.2857 0.0726-0.1473 (  4864 PWs)   bands (ev):

    -8.1089  -8.1089  -5.7085  -5.7085  -4.0236  -4.0236  -0.8575  -0.8575
     0.3391   0.3391   0.8587   0.8587   2.3915   2.3915   2.7793   2.7793
     4.1319   4.1319   5.1289   5.1289

     occupation numbers 
     1.0000   1.0000   1.0000   1.0000   1.0000   1.0000   1.0000   1.0000
     1.0000   1.0000   1.0000   1.0000   1.0000   1.0000   1.0000   1.0000
     1.0000   1.0000   1.0000   1.0000

          k = 0.2857 0.1452 0.0000 (  4858 PWs)   bands (ev):

    -8.0132  -7.9183  -6.0165  -5.8870  -3.8701  -3.7443  -1.1829  -1.1756
     0.0159   0.1977   0.7515   0.9658   2.4392   2.5930   2.8612   3.1019
     3.7807   4.5395   4.5808   5.0634

     occupation numbers 
     1.0000   1.0000   1.0000   1.0000   1.0000   1.0000   1.0000   1.0000
     1.0000   1.0000   1.0000   1.0000   1.0000   1.0000   1.0000   1.0000
     1.0000   1.0000   1.0000   1.0000

          k = 0.2857 0.1452 0.0737 (  4855 PWs)   bands (ev):

    -8.0001  -7.9331  -5.9961  -5.9046  -3.8534  -3.7645  -1.1833  -1.1783
     0.0401   0.1632   0.8075   0.9522   2.4159   2.5062   2.9488   3.0975
     3.8462   4.3614   4.6860   5.0436

     occupation numbers 
     1.0000   1.0000   1.0000   1.0000   1.0000   1.0000   1.0000   1.0000
     1.0000   1.0000   1.0000   1.0000   1.0000   1.0000   1.0000   1.0000
     1.0000   1.0000   1.0000   1.0000

          k = 0.2857 0.1452-0.1473 (  4868 PWs)   bands (ev):

    -7.9674  -7.9674  -5.9491  -5.9490  -3.8107  -3.8107  -1.1824  -1.1824
     0.0978   0.0978   0.8999   0.8999   2.4168   2.4168   3.0540   3.0540
     4.0556   4.0556   4.8995   4.8995

     occupation numbers 
     1.0000   1.0000   1.0000   1.0000   1.0000   1.0000   1.0000   1.0000
     1.0000   1.0000   1.0000   1.0000   1.0000   1.0000   1.0000   1.0000
     1.0000   1.0000   1.0000   1.0000

          k = 0.2857 0.2179 0.0000 (  4854 PWs)   bands (ev):

    -7.7800  -7.6944  -6.3163  -6.2649  -3.5831  -3.4006  -1.6797  -1.5808
    -0.1219   0.1149   0.7300   0.7963   2.1808   2.6877   3.3095   3.3570
     3.7361   4.2627   4.5635   4.9332

     occupation numbers 
     1.0000   1.0000   1.0000   1.0000   1.0000   1.0000   1.0000   1.0000
     1.0000   1.0000   1.0000   1.0000   1.0000   1.0000   1.0000   1.0000
     1.0000   1.0000   1.0000   1.0000

          k = 0.2857 0.2179 0.0737 (  4858 PWs)   bands (ev):

    -7.7681  -7.7077  -6.3078  -6.2715  -3.5580  -3.4291  -1.6657  -1.5957
    -0.0917   0.0720   0.7461   0.8006   2.2337   2.5940   3.3382   3.3742
     3.8001   4.3509   4.3896   4.8929

     occupation numbers 
     1.0000   1.0000   1.0000   1.0000   1.0000   1.0000   1.0000   1.0000
     1.0000   1.0000   1.0000   1.0000   1.0000   1.0000   1.0000   1.0000
     1.0000   1.0000   1.0000   1.0000

          k = 0.2857 0.2179-0.1473 (  4852 PWs)   bands (ev):

    -7.7386  -7.7386  -6.2887  -6.2887  -3.4953  -3.4953  -1.6312  -1.6312
    -0.0154  -0.0153   0.7818   0.7818   2.3963   2.3963   3.3775   3.3775
     4.0154   4.0154   4.6709   4.6709

     occupation numbers 
     1.0000   1.0000   1.0000   1.0000   1.0000   1.0000   1.0000   1.0000
     1.0000   1.0000   1.0000   1.0000   1.0000   1.0000   1.0000   1.0000
     1.0000   1.0000   1.0000   1.0000

          k = 0.2857 0.2905 0.0000 (  4865 PWs)   bands (ev):

    -7.4679  -7.3978  -6.6815  -6.6750  -3.2017  -2.9892  -2.2208  -2.0467
    -0.0790   0.1862   0.4129   0.6410   2.2575   2.9190   3.0182   3.4350
     3.7954   4.1224   4.6711   4.8938

     occupation numbers 
     1.0000   1.0000   1.0000   1.0000   1.0000   1.0000   1.0000   1.0000
     1.0000   1.0000   1.0000   1.0000   1.0000   1.0000   1.0000   1.0000
     1.0000   1.0000   1.0000   1.0000

          k = 0.2857 0.2905 0.0737 (  4854 PWs)   bands (ev):

    -7.4581  -7.4086  -6.6802  -6.6756  -3.1718  -3.0216  -2.1956  -2.0724
    -0.0469   0.1379   0.4412   0.6029   2.3583   2.8248   3.1004   3.3942
     3.8764   4.2306   4.4618   4.7962

     occupation numbers 
     1.0000   1.0000   1.0000   1.0000   1.0000   1.0000   1.0000   1.0000
     1.0000   1.0000   1.0000   1.0000   1.0000   1.0000   1.0000   1.0000
     1.0000   1.0000   1.0000   1.0000

          k = 0.2857 0.2905-0.1473 (  4852 PWs)   bands (ev):

    -7.4339  -7.4338  -6.6775  -6.6775  -3.0980  -3.0980  -2.1343  -2.1343
     0.0380   0.0380   0.5167   0.5167   2.5957   2.5957   3.2673   3.2673
     4.1162   4.1162   4.5094   4.5094

     occupation numbers 
     1.0000   1.0000   1.0000   1.0000   1.0000   1.0000   1.0000   1.0000
     1.0000   1.0000   1.0000   1.0000   1.0000   1.0000   1.0000   1.0000
     1.0000   1.0000   1.0000   1.0000

          k = 0.2857-0.3631 0.0000 (  4854 PWs)   bands (ev):

    -7.0936  -7.0936  -7.0483  -7.0483  -2.7402  -2.7402  -2.5292  -2.5292
     0.1171   0.1171   0.3869   0.3869   2.5915   2.5915   3.2105   3.2105
     3.9514   3.9514   4.8114   4.8114

     occupation numbers 
     1.0000   1.0000   1.0000   1.0000   1.0000   1.0000   1.0000   1.0000
     1.0000   1.0000   1.0000   1.0000   1.0000   1.0000   1.0000   1.0000
     1.0000   1.0000   1.0000   1.0000

          k = 0.2857-0.3631 0.0737 (  4856 PWs)   bands (ev):

    -7.0871  -7.0871  -7.0551  -7.0551  -2.7100  -2.7100  -2.5609  -2.5609
     0.1490   0.1490   0.3376   0.3376   2.6971   2.6971   3.1322   3.1322
     4.0473   4.0473   4.6460   4.6460

     occupation numbers 
     1.0000   1.0000   1.0000   1.0000   1.0000   1.0000   1.0000   1.0000
     1.0000   1.0000   1.0000   1.0000   1.0000   1.0000   1.0000   1.0000
     1.0000   1.0000   1.0000   1.0000

          k = 0.2857-0.3631-0.1473 (  4852 PWs)   bands (ev):

    -7.0713  -7.0713  -7.0713  -7.0713  -2.6361  -2.6361  -2.6361  -2.6361
     0.2349   0.2349   0.2349   0.2349   2.9282   2.9282   2.9282   2.9282
[...]

     occupation numbers 
     1.0000   1.0000   1.0000   1.0000   1.0000   1.0000   1.0000   1.0000
     1.0000   1.0000   1.0000   1.0000   1.0000   1.0000   1.0000   1.0000
     1.0000   1.0000   1.0000   1.0000

          k =-0.5000-0.3631 0.0000 (  4872 PWs)   bands (ev):

    -5.9280  -5.9280  -5.9280  -5.9280  -3.9419  -3.9419  -3.9419  -3.9419
     0.8375   0.8375   0.8376   0.8376   1.3114   1.3114   1.3114   1.3114
     4.5853   4.5853   4.5853   4.5853

     occupation numbers 
     1.0000   1.0000   1.0000   1.0000   1.0000   1.0000   1.0000   1.0000
     1.0000   1.0000   1.0000   1.0000   1.0000   1.0000   1.0000   1.0000
     1.0000   1.0000   1.0000   1.0000

          k =-0.5000-0.3631 0.0737 (  4860 PWs)   bands (ev):

    -5.9280  -5.9280  -5.9280  -5.9280  -3.9421  -3.9421  -3.9421  -3.9421
     0.8757   0.8757   0.8757   0.8757   1.2604   1.2604   1.2604   1.2604
     4.6258   4.6258   4.6258   4.6258

     occupation numbers 
     1.0000   1.0000   1.0000   1.0000   1.0000   1.0000   1.0000   1.0000
     1.0000   1.0000   1.0000   1.0000   1.0000   1.0000   1.0000   1.0000
     1.0000   1.0000   1.0000   1.0000

          k =-0.5000-0.3631-0.1473 (  4864 PWs)   bands (ev):

    -5.9280  -5.9280  -5.9280  -5.9280  -3.9423  -3.9423  -3.9423  -3.9423
     0.9270   0.9270   0.9270   0.9270   1.1965   1.1965   1.1965   1.1965
     4.6670   4.6670   4.6670   4.6670

     occupation numbers 
     1.0000   1.0000   1.0000   1.0000   1.0000   1.0000   1.0000   1.0000
     1.0000   1.0000   1.0000   1.0000   1.0000   1.0000   1.0000   1.0000
     1.0000   1.0000   1.0000   1.0000

          k = 0.0000 0.0726-0.0737 (  4890 PWs)   bands (ev):

    -9.0991  -9.0250  -6.7667  -6.6047  -3.2460  -3.2397  -0.2230  -0.1020
     1.1808   1.2342   1.6156   1.8257   2.5195   2.5723   4.0338   4.1086
     4.1168   4.6703   5.1169   5.8364

     occupation numbers 
     1.0000   1.0000   1.0000   1.0000   1.0000   1.0000   1.0000   1.0000
     1.0000   1.0000   1.0000   1.0000   1.0000   1.0000   1.0000   1.0000
     1.0000   1.0000   1.0000   1.0000

          k = 0.0000 0.1452-0.0737 (  4883 PWs)   bands (ev):

    -8.9488  -8.8782  -6.9291  -6.8206  -3.3303  -3.2452  -0.8265  -0.6763
     1.2616   1.6725   2.2236   2.3900   2.6350   2.6842   3.9456   4.0091
     4.4054   4.7643   5.0925   5.2455

     occupation numbers 
     1.0000   1.0000   1.0000   1.0000   1.0000   1.0000   1.0000   1.0000
     1.0000   1.0000   1.0000   1.0000   1.0000   1.0000   1.0000   1.0000
     1.0000   1.0000   1.0000   1.0000

          k = 0.0000 0.2179-0.0737 (  4856 PWs)   bands (ev):

    -8.7049  -8.6409  -7.2055  -7.1580  -3.3086  -3.1298  -1.5494  -1.2902
     1.4975   2.2409   2.8186   2.8607   2.9456   3.1538   3.6817   3.7936
     3.8300   4.5807   5.3447   5.4943

     occupation numbers 
     1.0000   1.0000   1.0000   1.0000   1.0000   1.0000   1.0000   1.0000
     1.0000   1.0000   1.0000   1.0000   1.0000   1.0000   1.0000   1.0000
     1.0000   1.0000   1.0000   1.0000

          k = 0.0000 0.2905-0.0737 (  4867 PWs)   bands (ev):

    -8.3786  -8.3260  -7.5668  -7.5656  -3.1067  -2.8595  -2.1965  -1.9050
     1.8800   2.7823   2.9757   3.0551   3.0859   3.5832   3.5923   3.7209
     4.0255   4.0377   5.3321   5.3949

     occupation numbers 
     1.0000   1.0000   1.0000   1.0000   1.0000   1.0000   1.0000   1.0000
     1.0000   1.0000   1.0000   1.0000   1.0000   1.0000   1.0000   1.0000
     1.0000   1.0000   1.0000   1.0000

          k =-0.0714 0.0726-0.0737 (  4881 PWs)   bands (ev):

    -9.0386  -8.9647  -6.7041  -6.5426  -3.2641  -3.2598  -0.1849  -0.0749
     1.1859   1.2047   1.5870   1.7753   2.2252   2.3050   3.6179   3.7130
     4.1592   4.6908   5.1451   5.8330

     occupation numbers 
     1.0000   1.0000   1.0000   1.0000   1.0000   1.0000   1.0000   1.0000
     1.0000   1.0000   1.0000   1.0000   1.0000   1.0000   1.0000   1.0000
     1.0000   1.0000   1.0000   1.0000

          k =-0.0714 0.1452-0.0737 (  4876 PWs)   bands (ev):

    -8.8886  -8.8181  -6.8684  -6.7605  -3.3323  -3.2479  -0.7994  -0.6503
     1.2682   1.5914   2.0098   2.0257   2.5986   2.7482   3.4988   3.5723
     4.4447   4.7454   5.0773   5.2517

     occupation numbers 
     1.0000   1.0000   1.0000   1.0000   1.0000   1.0000   1.0000   1.0000
     1.0000   1.0000   1.0000   1.0000   1.0000   1.0000   1.0000   1.0000
     1.0000   1.0000   1.0000   1.0000

          k =-0.0714 0.2179-0.0737 (  4867 PWs)   bands (ev):

    -8.6452  -8.5813  -7.1464  -7.0995  -3.2946  -3.1183  -1.5193  -1.2653
     1.5214   2.0212   2.2484   2.4069   3.2477   3.3121   3.3645   3.4390
     3.7383   4.6086   5.2385   5.4261

     occupation numbers 
     1.0000   1.0000   1.0000   1.0000   1.0000   1.0000   1.0000   1.0000
     1.0000   1.0000   1.0000   1.0000   1.0000   1.0000   1.0000   1.0000
     1.0000   1.0000   1.0000   1.0000

          k =-0.0714 0.2905-0.0737 (  4869 PWs)   bands (ev):

    -8.3195  -8.2671  -7.5087  -7.5073  -3.0823  -2.8390  -2.1652  -1.8790
     1.9108   2.3922   2.5174   2.8491   2.9781   3.0743   3.1253   3.8637
     4.1800   4.2530   5.3326   5.3524

     occupation numbers 
     1.0000   1.0000   1.0000   1.0000   1.0000   1.0000   1.0000   1.0000
     1.0000   1.0000   1.0000   1.0000   1.0000   1.0000   1.0000   1.0000
     1.0000   1.0000   1.0000   1.0000

          k =-0.1429 0.0726-0.0737 (  4879 PWs)   bands (ev):

    -8.8575  -8.7842  -6.5171  -6.3570  -3.3491  -3.3461  -0.0954  -0.0285
     1.0168   1.0695   1.3055   1.3150   1.9291   2.1648   2.9884   3.0079
     4.1769   4.7138   5.1761   5.7677

     occupation numbers 
     1.0000   1.0000   1.0000   1.0000   1.0000   1.0000   1.0000   1.0000
     1.0000   1.0000   1.0000   1.0000   1.0000   1.0000   1.0000   1.0000
     1.0000   1.0000   1.0000   1.0000

          k =-0.1429 0.1452-0.0737 (  4878 PWs)   bands (ev):

    -8.7086  -8.6387  -6.6873  -6.5816  -3.3645  -3.2817  -0.7438  -0.6019
     1.0572   1.1500   1.3308   1.7792   2.5831   2.6861   2.8809   2.8972
     4.5215   4.6126   4.9742   5.2497

     occupation numbers 
     1.0000   1.0000   1.0000   1.0000   1.0000   1.0000   1.0000   1.0000
     1.0000   1.0000   1.0000   1.0000   1.0000   1.0000   1.0000   1.0000
     1.0000   1.0000   1.0000   1.0000

          k =-0.1429 0.2179-0.0737 (  4869 PWs)   bands (ev):

    -8.4668  -8.4035  -6.9709  -6.9256  -3.2745  -3.1070  -1.4491  -1.2153
     1.1823   1.2896   1.6015   2.1300   2.4596   2.6643   3.4431   3.5802
     3.8778   4.6671   4.9043   5.1755

     occupation numbers 
     1.0000   1.0000   1.0000   1.0000   1.0000   1.0000   1.0000   1.0000
     1.0000   1.0000   1.0000   1.0000   1.0000   1.0000   1.0000   1.0000
     1.0000   1.0000   1.0000   1.0000

          k =-0.1429 0.2905-0.0737 (  4873 PWs)   bands (ev):

    -8.1433  -8.0914  -7.3361  -7.3341  -3.0276  -2.7980  -2.0885  -1.8226
     1.4179   1.5132   1.9326   2.0239   2.2318   2.9486   3.1340   3.8843
     4.3683   4.4018   4.9886   5.1618

     occupation numbers 
     1.0000   1.0000   1.0000   1.0000   1.0000   1.0000   1.0000   1.0000
     1.0000   1.0000   1.0000   1.0000   1.0000   1.0000   1.0000   1.0000
     1.0000   1.0000   1.0000   1.0000

          k =-0.2143 0.0726-0.0737 (  4875 PWs)   bands (ev):

    -8.5578  -8.4856  -6.2081  -6.0507  -3.5873  -3.5694  -0.1688  -0.1638
     0.6037   0.6224   0.7283   1.0172   2.0134   2.3058   2.6646   2.7446
     4.1183   4.6544   5.1527   5.5659

     occupation numbers 
     1.0000   1.0000   1.0000   1.0000   1.0000   1.0000   1.0000   1.0000
     1.0000   1.0000   1.0000   1.0000   1.0000   1.0000   1.0000   1.0000
     1.0000   1.0000   1.0000   1.0000

          k =-0.2143 0.1452-0.0737 (  4865 PWs)   bands (ev):

    -8.4109  -8.3422  -6.3911  -6.2898  -3.5076  -3.4252  -0.7796  -0.6788
     0.4049   0.5351   0.9739   1.2919   2.3425   2.4629   2.8540   3.0131
     4.2922   4.6124   4.7110   5.1936

     occupation numbers 
     1.0000   1.0000   1.0000   1.0000   1.0000   1.0000   1.0000   1.0000
     1.0000   1.0000   1.0000   1.0000   1.0000   1.0000   1.0000   1.0000
     1.0000   1.0000   1.0000   1.0000

          k =-0.2143 0.2179-0.0737 (  4868 PWs)   bands (ev):

    -8.1726  -8.1104  -6.6854  -6.6432  -3.3235  -3.1729  -1.4262  -1.2483
     0.3814   0.5228   1.1866   1.2879   2.1445   2.6497   3.4946   3.5516
     4.0970   4.3765   4.6758   4.8357

     occupation numbers 
     1.0000   1.0000   1.0000   1.0000   1.0000   1.0000   1.0000   1.0000
     1.0000   1.0000   1.0000   1.0000   1.0000   1.0000   1.0000   1.0000
     1.0000   1.0000   1.0000   1.0000

          k =-0.2143 0.2905-0.0737 (  4866 PWs)   bands (ev):

    -7.8536  -7.8026  -7.0549  -7.0519  -3.0121  -2.8128  -2.0395  -1.8234
     0.5174   0.6542   1.0559   1.1251   2.2818   2.9932   3.2276   3.7488
     4.2784   4.4232   4.5692   4.7950

     occupation numbers 
     1.0000   1.0000   1.0000   1.0000   1.0000   1.0000   1.0000   1.0000
     1.0000   1.0000   1.0000   1.0000   1.0000   1.0000   1.0000   1.0000
     1.0000   1.0000   1.0000   1.0000

          k =-0.2857 0.0726-0.0737 (  4861 PWs)   bands (ev):

    -8.1432  -8.0727  -5.7845  -5.6341  -4.0432  -4.0022  -0.8942  -0.8161
     0.3131   0.3703   0.7088   0.9995   2.2699   2.5456   2.6836   2.8364
     3.9108   4.4283   5.0245   5.1973

     occupation numbers 
     1.0000   1.0000   1.0000   1.0000   1.0000   1.0000   1.0000   1.0000
     1.0000   1.0000   1.0000   1.0000   1.0000   1.0000   1.0000   1.0000
     1.0000   1.0000   1.0000   1.0000

          k =-0.2857 0.1452-0.0737 (  4855 PWs)   bands (ev):

    -8.0001  -7.9331  -5.9961  -5.9046  -3.8534  -3.7645  -1.1833  -1.1783
     0.0401   0.1632   0.8075   0.9522   2.4159   2.5062   2.9488   3.0975
     3.8462   4.3614   4.6860   5.0436

     occupation numbers 
     1.0000   1.0000   1.0000   1.0000   1.0000   1.0000   1.0000   1.0000
     1.0000   1.0000   1.0000   1.0000   1.0000   1.0000   1.0000   1.0000
     1.0000   1.0000   1.0000   1.0000

          k =-0.2857 0.2179-0.0737 (  4858 PWs)   bands (ev):

    -7.7681  -7.7077  -6.3078  -6.2715  -3.5580  -3.4291  -1.6657  -1.5957
    -0.0917   0.0720   0.7461   0.8006   2.2337   2.5940   3.3382   3.3742
     3.8001   4.3509   4.3896   4.8929

     occupation numbers 
     1.0000   1.0000   1.0000   1.0000   1.0000   1.0000   1.0000   1.0000
     1.0000   1.0000   1.0000   1.0000   1.0000   1.0000   1.0000   1.0000
     1.0000   1.0000   1.0000   1.0000

          k =-0.2857 0.2905-0.0737 (  4854 PWs)   bands (ev):

    -7.4581  -7.4086  -6.6802  -6.6756  -3.1718  -3.0216  -2.1956  -2.0724
    -0.0469   0.1379   0.4412   0.6029   2.3583   2.8248   3.1004   3.3942
     3.8764   4.2306   4.4618   4.7962

     occupation numbers 
     1.0000   1.0000   1.0000   1.0000   1.0000   1.0000   1.0000   1.0000
     1.0000   1.0000   1.0000   1.0000   1.0000   1.0000   1.0000   1.0000
     1.0000   1.0000   1.0000   1.0000

          k =-0.3571 0.0726-0.0737 (  4859 PWs)   bands (ev):

    -7.6199  -7.5520  -5.3081  -5.1955  -4.6293  -4.5369  -1.8657  -1.7411
     0.3445   0.3936   0.9398   1.1630   2.5871   2.7524   2.8092   2.9475
     3.6754   4.1721   4.7225   4.7835

     occupation numbers 
     1.0000   1.0000   1.0000   1.0000   1.0000   1.0000   1.0000   1.0000
     1.0000   1.0000   1.0000   1.0000   1.0000   1.0000   1.0000   1.0000
     1.0000   1.0000   1.0000   1.0000

          k =-0.3571 0.1452-0.0737 (  4869 PWs)   bands (ev):

    -7.4839  -7.4197  -5.5837  -5.5185  -4.3299  -4.2156  -2.0297  -1.9543
     0.0494   0.1707   0.9442   1.0350   2.3812   2.4521   2.9629   3.0204
     3.5897   4.1932   4.7421   4.8304

     occupation numbers 
     1.0000   1.0000   1.0000   1.0000   1.0000   1.0000   1.0000   1.0000
     1.0000   1.0000   1.0000   1.0000   1.0000   1.0000   1.0000   1.0000
     1.0000   1.0000   1.0000   1.0000

          k =-0.3571 0.2179-0.0737 (  4870 PWs)   bands (ev):

    -7.2644  -7.2069  -5.9014  -5.8754  -3.9750  -3.8582  -2.3012  -2.2869
    -0.1322   0.0494   0.7478   0.8572   2.0881   2.2251   2.9230   3.0440
     3.6100   4.2951   4.6477   4.9395

     occupation numbers 
     1.0000   1.0000   1.0000   1.0000   1.0000   1.0000   1.0000   1.0000
     1.0000   1.0000   1.0000   1.0000   1.0000   1.0000   1.0000   1.0000
     1.0000   1.0000   1.0000   1.0000

          k =-0.3571 0.2905-0.0737 (  4862 PWs)   bands (ev):

    -6.9733  -6.9267  -6.2531  -6.2472  -3.5739  -3.4682  -2.6979  -2.6573
    -0.1304   0.0948   0.3743   0.6022   2.0507   2.3155   2.6092   2.8480
     3.7810   4.3912   4.4872   4.8962

     occupation numbers 
     1.0000   1.0000   1.0000   1.0000   1.0000   1.0000   1.0000   1.0000
     1.0000   1.0000   1.0000   1.0000   1.0000   1.0000   1.0000   1.0000
     1.0000   1.0000   1.0000   1.0000

          k =-0.4286 0.0726-0.0737 (  4873 PWs)   bands (ev):

    -6.9989  -6.9349  -5.5758  -5.5272  -4.4468  -4.2832  -2.8224  -2.6780
     0.5961   0.6485   1.0623   1.2100   2.7711   2.8402   2.8851   2.9525
     3.7253   4.1122   4.2934   4.5124

     occupation numbers 
     1.0000   1.0000   1.0000   1.0000   1.0000   1.0000   1.0000   1.0000
     1.0000   1.0000   1.0000   1.0000   1.0000   1.0000   1.0000   1.0000
     1.0000   1.0000   1.0000   1.0000

          k =-0.4286 0.1452-0.0737 (  4870 PWs)   bands (ev):

    -6.8774  -6.8176  -5.6192  -5.5796  -4.3658  -4.2271  -2.9282  -2.8232
     0.3364   0.4584   1.0203   1.1460   2.1768   2.3226   2.7445   2.7921
     3.7966   4.3133   4.5876   4.7424

     occupation numbers 
     1.0000   1.0000   1.0000   1.0000   1.0000   1.0000   1.0000   1.0000
     1.0000   1.0000   1.0000   1.0000   1.0000   1.0000   1.0000   1.0000
     1.0000   1.0000   1.0000   1.0000

          k =-0.4286 0.2179-0.0737 (  4862 PWs)   bands (ev):

    -6.6853  -6.6332  -5.7262  -5.7039  -4.2109  -4.1035  -3.1124  -3.0596
     0.1649   0.3548   0.9941   1.0189   1.7200   1.7825   2.3738   2.5546
     3.8949   4.4942   4.7621   4.7896

     occupation numbers 
     1.0000   1.0000   1.0000   1.0000   1.0000   1.0000   1.0000   1.0000
     1.0000   1.0000   1.0000   1.0000   1.0000   1.0000   1.0000   1.0000
     1.0000   1.0000   1.0000   1.0000

          k =-0.4286 0.2905-0.0737 (  4864 PWs)   bands (ev):

    -6.4399  -6.3999  -5.9092  -5.9087  -3.9768  -3.9018  -3.3625  -3.3603
     0.1721   0.4140   0.7034   0.9064   1.4820   1.6603   1.9607   2.2120
     4.0838   4.6136   4.6441   4.8021

     occupation numbers 
     1.0000   1.0000   1.0000   1.0000   1.0000   1.0000   1.0000   1.0000
     1.0000   1.0000   1.0000   1.0000   1.0000   1.0000   1.0000   1.0000
     1.0000   1.0000   1.0000   1.0000

          k = 0.5000 0.0726-0.0737 (  4870 PWs)   bands (ev):

    -6.3003  -6.3003  -6.2423  -6.2423  -3.6979  -3.6979  -3.5423  -3.5423
     0.9072   0.9073   0.9894   0.9894   2.8790   2.8790   2.8874   2.8874
     3.9395   3.9395   4.2988   4.2988

     occupation numbers 
     1.0000   1.0000   1.0000   1.0000   1.0000   1.0000   1.0000   1.0000
     1.0000   1.0000   1.0000   1.0000   1.0000   1.0000   1.0000   1.0000
     1.0000   1.0000   1.0000   1.0000

          k = 0.5000 0.1452-0.0737 (  4854 PWs)   bands (ev):

    -6.2148  -6.2148  -6.1628  -6.1628  -3.7497  -3.7497  -3.6270  -3.6270
     0.7426   0.7426   0.8746   0.8746   2.3650   2.3650   2.4829   2.4829
     4.1989   4.1989   4.5917   4.5917

     occupation numbers 
     1.0000   1.0000   1.0000   1.0000   1.0000   1.0000   1.0000   1.0000
     1.0000   1.0000   1.0000   1.0000   1.0000   1.0000   1.0000   1.0000
     1.0000   1.0000   1.0000   1.0000

          k = 0.5000 0.2179-0.0737 (  4870 PWs)   bands (ev):

    -6.0959  -6.0959  -6.0551  -6.0551  -3.8323  -3.8323  -3.7535  -3.7535
     0.6370   0.6370   0.8263   0.8264   1.8270   1.8270   2.0407   2.0407
     4.3483   4.3483   4.7240   4.7240

     occupation numbers 
     1.0000   1.0000   1.0000   1.0000   1.0000   1.0000   1.0000   1.0000
     1.0000   1.0000   1.0000   1.0000   1.0000   1.0000   1.0000   1.0000
     1.0000   1.0000   1.0000   1.0000

          k = 0.5000 0.2905-0.0737 (  4864 PWs)   bands (ev):

    -5.9831  -5.9831  -5.9599  -5.9599  -3.9150  -3.9150  -3.8787  -3.8787
     0.6818   0.6818   0.9032   0.9033   1.3599   1.3599   1.6034   1.6034
     4.4865   4.4865   4.7208   4.7208

     occupation numbers 
     1.0000   1.0000   1.0000   1.0000   1.0000   1.0000   1.0000   1.0000
     1.0000   1.0000   1.0000   1.0000   1.0000   1.0000   1.0000   1.0000
     1.0000   1.0000   1.0000   1.0000

     highest occupied level (ev):     6.3875

!    total energy              =    -105.50054856 Ry
     estimated scf accuracy    <          1.2E-11 Ry

     The total energy is the sum of the following terms:
     one-electron contribution =       2.77735444 Ry
     hartree contribution      =      15.66157758 Ry
     xc contribution           =     -26.85466007 Ry
     ewald contribution        =     -97.08482052 Ry

     convergence has been achieved in  10 iterations

     Writing output data file run_output/BP.save/

     init_run     :      1.20s CPU      1.29s WALL (       1 calls)
     electrons    :      9.36s CPU      9.82s WALL (       1 calls)

     Called by init_run:
     wfcinit      :      0.85s CPU      0.89s WALL (       1 calls)
     wfcinit:atom :      0.00s CPU      0.01s WALL (      13 calls)
     wfcinit:wfcr :      0.79s CPU      0.83s WALL (      13 calls)
     potinit      :      0.09s CPU      0.09s WALL (       1 calls)
     hinit0       :      0.07s CPU      0.08s WALL (       1 calls)

     Called by electrons:
     c_bands      :      8.28s CPU      8.66s WALL (      11 calls)
     sum_band     :      0.88s CPU      0.92s WALL (      11 calls)
     v_of_rho     :      0.12s CPU      0.13s WALL (      11 calls)
     v_h          :      0.01s CPU      0.01s WALL (      11 calls)
     v_xc         :      0.11s CPU      0.12s WALL (      11 calls)
     mix_rho      :      0.02s CPU      0.02s WALL (      11 calls)

     Called by c_bands:
     init_us_2    :      0.08s CPU      0.07s WALL (     299 calls)
     cegterg      :      7.70s CPU      8.08s WALL (     143 calls)

     Called by sum_band:
     sum_band:wei :      0.00s CPU      0.00s WALL (      11 calls)
     sum_band:loo :      0.84s CPU      0.88s WALL (      11 calls)
     sum_band:buf :      0.01s CPU      0.01s WALL (     143 calls)
     sum_band:ini :      0.03s CPU      0.03s WALL (     143 calls)

     Called by *egterg:
     cdiaghg      :      0.57s CPU      0.57s WALL (     582 calls)
     cegterg:over :      0.62s CPU      0.63s WALL (     452 calls)
     cegterg:upda :      0.48s CPU      0.51s WALL (     452 calls)
     cegterg:last :      0.23s CPU      0.23s WALL (     143 calls)
     h_psi        :      6.20s CPU      6.51s WALL (     608 calls)
     g_psi        :      0.04s CPU      0.03s WALL (     452 calls)

     Called by h_psi:
     h_psi:calbec :      0.41s CPU      0.41s WALL (     608 calls)
     vloc_psi     :      5.27s CPU      5.55s WALL (     608 calls)
     add_vuspsi   :      0.50s CPU      0.51s WALL (     608 calls)

     General routines
     calbec       :      0.41s CPU      0.41s WALL (     608 calls)
     fft          :      0.06s CPU      0.07s WALL (     110 calls)
     ffts         :      0.01s CPU      0.01s WALL (      11 calls)
     fftw         :      5.74s CPU      6.04s WALL (   21626 calls)

     Parallel routines
     fft_scatt_xy :      0.49s CPU      0.51s WALL (   21747 calls)
     fft_scatt_yz :      1.34s CPU      1.57s WALL (   21747 calls)

     PWSCF        :     11.17s CPU     14.27s WALL


   This run was terminated on:  19: 1:36  29Jun2021            

=------------------------------------------------------------------------------=
   JOB DONE.
=------------------------------------------------------------------------------=
2 total processes killed (some possibly by mpirun during cleanup)
