
     Program PWSCF v.6.7MaX starts on 29Apr2021 at 15:49: 8 

     This program is part of the open-source Quantum ESPRESSO suite
     for quantum simulation of materials; please cite
         "P. Giannozzi et al., J. Phys.:Condens. Matter 21 395502 (2009);
         "P. Giannozzi et al., J. Phys.:Condens. Matter 29 465901 (2017);
          URL http://www.quantum-espresso.org", 
     in publications or presentations arising from this work. More details at
     http://www.quantum-espresso.org/quote

     Parallel version (MPI), running on    28 processors

     MPI processes distributed on     1 nodes
     R & G space division:  proc/nbgrp/npool/nimage =      28
     Waiting for input...
     Reading input from standard input

     Current dimensions of program PWSCF are:
     Max number of different atomic species (ntypx) = 10
     Max number of k-points (npk) =  40000
     Max angular momentum in pseudopotentials (lmaxx) =  3

     Atomic positions and unit cell read from directory:
     run_output/GaAs.save/
     Atomic positions from file used, from input discarded


     Subspace diagonalization in iterative solution of the eigenvalue problem:
     a serial algorithm will be used

     Message from routine setup:
     using ibrav=0 with symmetry is DISCOURAGED, use correct ibrav instead

     Parallelization info
     --------------------
     sticks:   dense  smooth     PW     G-vecs:    dense   smooth      PW
     Min          38      38     11                  838      838     136
     Max          39      39     12                  843      843     141
     Sum        1069    1069    313                23505    23505    3839



     bravais-lattice index     =            0
     lattice parameter (alat)  =       7.4893  a.u.
     unit-cell volume          =     297.0321 (a.u.)^3
     number of atoms/cell      =            2
     number of atomic types    =            2
     number of electrons       =         8.00
     number of Kohn-Sham states=           70
     kinetic-energy cutoff     =      70.0000  Ry
     charge density cutoff     =     280.0000  Ry
     Exchange-correlation=  SLA  PZ   NOGX NOGC
                           (   1   1   0   0   0   0   0)

     celldm(1)=   7.489269  celldm(2)=   0.000000  celldm(3)=   0.000000
     celldm(4)=   0.000000  celldm(5)=   0.000000  celldm(6)=   0.000000

     crystal axes: (cart. coord. in units of alat)
               a(1) = (   0.000000   0.707107   0.707107 )  
               a(2) = (   0.707107   0.000000   0.707107 )  
               a(3) = (   0.707107   0.707107   0.000000 )  

     reciprocal axes: (cart. coord. in units 2 pi/alat)
               b(1) = ( -0.707107  0.707107  0.707107 )  
               b(2) = (  0.707107 -0.707107  0.707107 )  
               b(3) = (  0.707107  0.707107 -0.707107 )  


     PseudoPot. # 1 for As read from file:
     PPs/As.pz-bhs.UPF
     MD5 check sum: 451cd3365afcfc94d28b1934951c34a8
     Pseudo is Norm-conserving, Zval =  5.0
     Generated by new atomic code, or converted to UPF format
     Using radial grid of  525 points,  2 beta functions with: 
                l(1) =   0
                l(2) =   1

     PseudoPot. # 2 for Ga read from file:
     PPs/Ga_hamlu.fhi.UPF
     MD5 check sum: 4ad1663a8a964d7f0e56f5e6e9567420
     Pseudo is Norm-conserving + core correction, Zval =  3.0
     Generated by new atomic code, or converted to UPF format
     Using radial grid of  529 points,  2 beta functions with: 
                l(1) =   1
                l(2) =   2

     atomic species   valence    mass     pseudopotential
        As             5.00    74.92160     As( 1.00)
        Ga             3.00    69.72300     Ga( 1.00)

     24 Sym. Ops. (no inversion) found


                                    s                        frac. trans.

      isym =  1     identity                                     

 cryst.   s( 1) = (     1          0          0      )
                  (     0          1          0      )
                  (     0          0          1      )

 cart.    s( 1) = (  1.0000000  0.0000000  0.0000000 )
                  (  0.0000000  1.0000000  0.0000000 )
                  (  0.0000000  0.0000000  1.0000000 )


      isym =  2     180 deg rotation - cart. axis [0,0,1]        

 cryst.   s( 2) = (     0          1         -1      )
                  (     1          0         -1      )
                  (     0          0         -1      )

 cart.    s( 2) = ( -1.0000000  0.0000000  0.0000000 )
                  (  0.0000000 -1.0000000  0.0000000 )
                  (  0.0000000  0.0000000  1.0000000 )


      isym =  3     180 deg rotation - cart. axis [0,1,0]        

 cryst.   s( 3) = (     0         -1          1      )
                  (     0         -1          0      )
                  (     1         -1          0      )

 cart.    s( 3) = ( -1.0000000  0.0000000  0.0000000 )
                  (  0.0000000  1.0000000  0.0000000 )
                  (  0.0000000  0.0000000 -1.0000000 )


      isym =  4     180 deg rotation - cart. axis [1,0,0]        

 cryst.   s( 4) = (    -1          0          0      )
                  (    -1          0          1      )
                  (    -1          1          0      )

 cart.    s( 4) = (  1.0000000  0.0000000  0.0000000 )
                  (  0.0000000 -1.0000000  0.0000000 )
                  (  0.0000000  0.0000000 -1.0000000 )


      isym =  5     120 deg rotation - cart. axis [-1,-1,-1]     

 cryst.   s( 5) = (     0          0          1      )
                  (     1          0          0      )
                  (     0          1          0      )

 cart.    s( 5) = (  0.0000000  1.0000000  0.0000000 )
                  (  0.0000000  0.0000000  1.0000000 )
                  (  1.0000000  0.0000000  0.0000000 )


      isym =  6     120 deg rotation - cart. axis [-1,1,1]       

 cryst.   s( 6) = (     1         -1          0      )
                  (     0         -1          1      )
                  (     0         -1          0      )

 cart.    s( 6) = (  0.0000000 -1.0000000  0.0000000 )
                  (  0.0000000  0.0000000  1.0000000 )
                  ( -1.0000000  0.0000000  0.0000000 )


      isym =  7     120 deg rotation - cart. axis [1,1,-1]       

 cryst.   s( 7) = (    -1          1          0      )
                  (    -1          0          0      )
                  (    -1          0          1      )

 cart.    s( 7) = (  0.0000000  1.0000000  0.0000000 )
                  (  0.0000000  0.0000000 -1.0000000 )
                  ( -1.0000000  0.0000000  0.0000000 )


      isym =  8     120 deg rotation - cart. axis [1,-1,1]       

 cryst.   s( 8) = (     0          0         -1      )
                  (     0          1         -1      )
                  (     1          0         -1      )

 cart.    s( 8) = (  0.0000000 -1.0000000  0.0000000 )
                  (  0.0000000  0.0000000 -1.0000000 )
                  (  1.0000000  0.0000000  0.0000000 )


      isym =  9     120 deg rotation - cart. axis [1,1,1]        

 cryst.   s( 9) = (     0          1          0      )
                  (     0          0          1      )
                  (     1          0          0      )

 cart.    s( 9) = (  0.0000000  0.0000000  1.0000000 )
                  (  1.0000000  0.0000000  0.0000000 )
                  (  0.0000000  1.0000000  0.0000000 )


      isym = 10     120 deg rotation - cart. axis [-1,1,-1]      

 cryst.   s(10) = (    -1          0          1      )
                  (    -1          1          0      )
                  (    -1          0          0      )

 cart.    s(10) = (  0.0000000  0.0000000  1.0000000 )
                  ( -1.0000000  0.0000000  0.0000000 )
                  (  0.0000000 -1.0000000  0.0000000 )


      isym = 11     120 deg rotation - cart. axis [1,-1,-1]      

 cryst.   s(11) = (     1          0         -1      )
                  (     0          0         -1      )
                  (     0          1         -1      )

 cart.    s(11) = (  0.0000000  0.0000000 -1.0000000 )
                  ( -1.0000000  0.0000000  0.0000000 )
                  (  0.0000000  1.0000000  0.0000000 )


      isym = 12     120 deg rotation - cart. axis [-1,-1,1]      

 cryst.   s(12) = (     0         -1          0      )
                  (     1         -1          0      )
                  (     0         -1          1      )

 cart.    s(12) = (  0.0000000  0.0000000 -1.0000000 )
                  (  1.0000000  0.0000000  0.0000000 )
                  (  0.0000000 -1.0000000  0.0000000 )


      isym = 13     inv. 180 deg rotation - cart. axis [1,1,0]   

 cryst.   s(13) = (     1          0         -1      )
                  (     0          1         -1      )
                  (     0          0         -1      )

 cart.    s(13) = (  0.0000000 -1.0000000  0.0000000 )
                  ( -1.0000000  0.0000000  0.0000000 )
                  (  0.0000000  0.0000000  1.0000000 )


      isym = 14     inv. 180 deg rotation - cart. axis [1,-1,0]  

 cryst.   s(14) = (     0          1          0      )
                  (     1          0          0      )
                  (     0          0          1      )

 cart.    s(14) = (  0.0000000  1.0000000  0.0000000 )
                  (  1.0000000  0.0000000  0.0000000 )
                  (  0.0000000  0.0000000  1.0000000 )


      isym = 15     inv.  90 deg rotation - cart. axis [0,0,-1]  

 cryst.   s(15) = (     0         -1          0      )
                  (     0         -1          1      )
                  (     1         -1          0      )

 cart.    s(15) = (  0.0000000 -1.0000000  0.0000000 )
                  (  1.0000000  0.0000000  0.0000000 )
                  (  0.0000000  0.0000000 -1.0000000 )


      isym = 16     inv.  90 deg rotation - cart. axis [0,0,1]   

 cryst.   s(16) = (    -1          0          1      )
                  (    -1          0          0      )
                  (    -1          1          0      )

 cart.    s(16) = (  0.0000000  1.0000000  0.0000000 )
                  ( -1.0000000  0.0000000  0.0000000 )
                  (  0.0000000  0.0000000 -1.0000000 )


      isym = 17     inv. 180 deg rotation - cart. axis [1,0,1]   

 cryst.   s(17) = (     1         -1          0      )
                  (     0         -1          0      )
                  (     0         -1          1      )

 cart.    s(17) = (  0.0000000  0.0000000 -1.0000000 )
                  (  0.0000000  1.0000000  0.0000000 )
                  ( -1.0000000  0.0000000  0.0000000 )


      isym = 18     inv. 180 deg rotation - cart. axis [-1,0,1]  

 cryst.   s(18) = (     0          0          1      )
                  (     0          1          0      )
                  (     1          0          0      )

 cart.    s(18) = (  0.0000000  0.0000000  1.0000000 )
                  (  0.0000000  1.0000000  0.0000000 )
                  (  1.0000000  0.0000000  0.0000000 )


      isym = 19     inv.  90 deg rotation - cart. axis [0,1,0]   

 cryst.   s(19) = (     0          0         -1      )
                  (     1          0         -1      )
                  (     0          1         -1      )

 cart.    s(19) = (  0.0000000  0.0000000 -1.0000000 )
                  (  0.0000000 -1.0000000  0.0000000 )
                  (  1.0000000  0.0000000  0.0000000 )


      isym = 20     inv.  90 deg rotation - cart. axis [0,-1,0]  

 cryst.   s(20) = (    -1          1          0      )
                  (    -1          0          1      )
                  (    -1          0          0      )

 cart.    s(20) = (  0.0000000  0.0000000  1.0000000 )
                  (  0.0000000 -1.0000000  0.0000000 )
                  ( -1.0000000  0.0000000  0.0000000 )


      isym = 21     inv. 180 deg rotation - cart. axis [0,1,1]   

 cryst.   s(21) = (    -1          0          0      )
                  (    -1          1          0      )
                  (    -1          0          1      )

 cart.    s(21) = (  1.0000000  0.0000000  0.0000000 )
                  (  0.0000000  0.0000000 -1.0000000 )
                  (  0.0000000 -1.0000000  0.0000000 )


      isym = 22     inv. 180 deg rotation - cart. axis [0,1,-1]  

 cryst.   s(22) = (     1          0          0      )
                  (     0          0          1      )
                  (     0          1          0      )

 cart.    s(22) = (  1.0000000  0.0000000  0.0000000 )
                  (  0.0000000  0.0000000  1.0000000 )
                  (  0.0000000  1.0000000  0.0000000 )


      isym = 23     inv.  90 deg rotation - cart. axis [-1,0,0]  

 cryst.   s(23) = (     0          1         -1      )
                  (     0          0         -1      )
                  (     1          0         -1      )

 cart.    s(23) = ( -1.0000000  0.0000000  0.0000000 )
                  (  0.0000000  0.0000000 -1.0000000 )
                  (  0.0000000  1.0000000  0.0000000 )


      isym = 24     inv.  90 deg rotation - cart. axis [1,0,0]   

 cryst.   s(24) = (     0         -1          1      )
                  (     1         -1          0      )
                  (     0         -1          0      )

 cart.    s(24) = ( -1.0000000  0.0000000  0.0000000 )
                  (  0.0000000  0.0000000  1.0000000 )
                  (  0.0000000 -1.0000000  0.0000000 )


   Cartesian axes

     site n.     atom                  positions (alat units)
         1           Ga  tau(   1) = (   0.0000000   0.0000000   0.0000000  )
         2           As  tau(   2) = (   0.3535534   1.0606602   1.0606602  )

   Crystallographic axes

     site n.     atom                  positions (cryst. coord.)
         1           Ga  tau(   1) = (  0.0000000  0.0000000  0.0000000  )
         2           As  tau(   2) = (  1.2500000  0.2500000  0.2500000  )

     number of k points=    47
                       cart. coord. in units 2pi/alat
        k(    1) = (   0.0000000   0.0000000   0.0000000), wk =   0.0020000
        k(    2) = (   0.0707107   0.0707107  -0.0707107), wk =   0.0160000
        k(    3) = (   0.1414214   0.1414214  -0.1414214), wk =   0.0160000
        k(    4) = (   0.2121320   0.2121320  -0.2121320), wk =   0.0160000
        k(    5) = (   0.2828427   0.2828427  -0.2828427), wk =   0.0160000
        k(    6) = (  -0.3535534  -0.3535534   0.3535534), wk =   0.0080000
        k(    7) = (   0.1414214   0.0000000   0.0000000), wk =   0.0120000
        k(    8) = (   0.2121320   0.0707107  -0.0707107), wk =   0.0480000
        k(    9) = (   0.2828427   0.1414214  -0.1414214), wk =   0.0480000
        k(   10) = (   0.3535534   0.2121320  -0.2121320), wk =   0.0480000
        k(   11) = (  -0.2828427  -0.4242641   0.4242641), wk =   0.0480000
        k(   12) = (  -0.2121320  -0.3535534   0.3535534), wk =   0.0480000
        k(   13) = (  -0.1414214  -0.2828427   0.2828427), wk =   0.0480000
        k(   14) = (  -0.0707107  -0.2121320   0.2121320), wk =   0.0480000
        k(   15) = (   0.0000000  -0.1414214   0.1414214), wk =   0.0240000
        k(   16) = (   0.2828427   0.0000000   0.0000000), wk =   0.0120000
        k(   17) = (   0.3535534   0.0707107  -0.0707107), wk =   0.0480000
        k(   18) = (   0.4242641   0.1414214  -0.1414214), wk =   0.0480000
        k(   19) = (  -0.2121320  -0.4949747   0.4949747), wk =   0.0480000
        k(   20) = (  -0.1414214  -0.4242641   0.4242641), wk =   0.0480000
        k(   21) = (  -0.0707107  -0.3535534   0.3535534), wk =   0.0480000
        k(   22) = (   0.0000000  -0.2828427   0.2828427), wk =   0.0240000
        k(   23) = (   0.4242641   0.0000000   0.0000000), wk =   0.0120000
        k(   24) = (   0.4949747   0.0707107  -0.0707107), wk =   0.0480000
        k(   25) = (  -0.1414214  -0.5656854   0.5656854), wk =   0.0480000
        k(   26) = (  -0.0707107  -0.4949747   0.4949747), wk =   0.0480000
        k(   27) = (  -0.0000000  -0.4242641   0.4242641), wk =   0.0240000
        k(   28) = (   0.5656854   0.0000000   0.0000000), wk =   0.0120000
        k(   29) = (  -0.0707107  -0.6363961   0.6363961), wk =   0.0480000
        k(   30) = (   0.0000000  -0.5656854   0.5656854), wk =   0.0240000
        k(   31) = (  -0.7071068   0.0000000   0.0000000), wk =   0.0060000
        k(   32) = (   0.2828427   0.1414214   0.0000000), wk =   0.0480000
        k(   33) = (   0.3535534   0.2121320  -0.0707107), wk =   0.0960000
        k(   34) = (  -0.2828427  -0.4242641   0.5656854), wk =   0.0960000
        k(   35) = (  -0.2121320  -0.3535534   0.4949747), wk =   0.0480000
        k(   36) = (   0.4242641   0.1414214  -0.0000000), wk =   0.0480000
        k(   37) = (  -0.2121320  -0.4949747   0.6363961), wk =   0.0960000
        k(   38) = (  -0.1414214  -0.4242641   0.5656854), wk =   0.0960000
        k(   39) = (  -0.0707107  -0.3535534   0.4949747), wk =   0.0960000
        k(   40) = (   0.0000000  -0.2828427   0.4242641), wk =   0.0480000
        k(   41) = (  -0.1414214  -0.5656854   0.7071068), wk =   0.0480000
        k(   42) = (  -0.0707107  -0.4949747   0.6363961), wk =   0.0960000
        k(   43) = (  -0.0000000  -0.4242641   0.5656854), wk =   0.0480000
        k(   44) = (  -0.7071068   0.1414214   0.0000000), wk =   0.0240000
        k(   45) = (  -0.1414214  -0.4242641   0.7071068), wk =   0.0480000
        k(   46) = (  -0.0707107  -0.3535534   0.6363961), wk =   0.0480000
        k(   47) = (  -0.7071068   0.2828427   0.0000000), wk =   0.0240000

                       cryst. coord.
        k(    1) = (   0.0000000   0.0000000   0.0000000), wk =   0.0020000
        k(    2) = (   0.0000000   0.0000000   0.1000000), wk =   0.0160000
        k(    3) = (   0.0000000   0.0000000   0.2000000), wk =   0.0160000
        k(    4) = (   0.0000000   0.0000000   0.3000000), wk =   0.0160000
        k(    5) = (   0.0000000   0.0000000   0.4000000), wk =   0.0160000
        k(    6) = (   0.0000000   0.0000000  -0.5000000), wk =   0.0080000
        k(    7) = (   0.0000000   0.1000000   0.1000000), wk =   0.0120000
        k(    8) = (   0.0000000   0.1000000   0.2000000), wk =   0.0480000
        k(    9) = (   0.0000000   0.1000000   0.3000000), wk =   0.0480000
        k(   10) = (   0.0000000   0.1000000   0.4000000), wk =   0.0480000
        k(   11) = (   0.0000000   0.1000000  -0.5000000), wk =   0.0480000
        k(   12) = (   0.0000000   0.1000000  -0.4000000), wk =   0.0480000
        k(   13) = (   0.0000000   0.1000000  -0.3000000), wk =   0.0480000
        k(   14) = (   0.0000000   0.1000000  -0.2000000), wk =   0.0480000
        k(   15) = (   0.0000000   0.1000000  -0.1000000), wk =   0.0240000
        k(   16) = (   0.0000000   0.2000000   0.2000000), wk =   0.0120000
        k(   17) = (   0.0000000   0.2000000   0.3000000), wk =   0.0480000
        k(   18) = (   0.0000000   0.2000000   0.4000000), wk =   0.0480000
        k(   19) = (   0.0000000   0.2000000  -0.5000000), wk =   0.0480000
        k(   20) = (   0.0000000   0.2000000  -0.4000000), wk =   0.0480000
        k(   21) = (   0.0000000   0.2000000  -0.3000000), wk =   0.0480000
        k(   22) = (   0.0000000   0.2000000  -0.2000000), wk =   0.0240000
        k(   23) = (   0.0000000   0.3000000   0.3000000), wk =   0.0120000
        k(   24) = (   0.0000000   0.3000000   0.4000000), wk =   0.0480000
        k(   25) = (   0.0000000   0.3000000  -0.5000000), wk =   0.0480000
        k(   26) = (   0.0000000   0.3000000  -0.4000000), wk =   0.0480000
        k(   27) = (   0.0000000   0.3000000  -0.3000000), wk =   0.0240000
        k(   28) = (   0.0000000   0.4000000   0.4000000), wk =   0.0120000
        k(   29) = (   0.0000000   0.4000000  -0.5000000), wk =   0.0480000
        k(   30) = (   0.0000000   0.4000000  -0.4000000), wk =   0.0240000
        k(   31) = (   0.0000000  -0.5000000  -0.5000000), wk =   0.0060000
        k(   32) = (   0.1000000   0.2000000   0.3000000), wk =   0.0480000
        k(   33) = (   0.1000000   0.2000000   0.4000000), wk =   0.0960000
        k(   34) = (   0.1000000   0.2000000  -0.5000000), wk =   0.0960000
        k(   35) = (   0.1000000   0.2000000  -0.4000000), wk =   0.0480000
        k(   36) = (   0.1000000   0.3000000   0.4000000), wk =   0.0480000
        k(   37) = (   0.1000000   0.3000000  -0.5000000), wk =   0.0960000
        k(   38) = (   0.1000000   0.3000000  -0.4000000), wk =   0.0960000
        k(   39) = (   0.1000000   0.3000000  -0.3000000), wk =   0.0960000
        k(   40) = (   0.1000000   0.3000000  -0.2000000), wk =   0.0480000
        k(   41) = (   0.1000000   0.4000000  -0.5000000), wk =   0.0480000
        k(   42) = (   0.1000000   0.4000000  -0.4000000), wk =   0.0960000
        k(   43) = (   0.1000000   0.4000000  -0.3000000), wk =   0.0480000
        k(   44) = (   0.1000000  -0.5000000  -0.4000000), wk =   0.0240000
        k(   45) = (   0.2000000   0.4000000  -0.4000000), wk =   0.0480000
        k(   46) = (   0.2000000   0.4000000  -0.3000000), wk =   0.0480000
        k(   47) = (   0.2000000  -0.5000000  -0.3000000), wk =   0.0240000

     Dense  grid:    23505 G-vectors     FFT dimensions: (  40,  40,  40)

     Dynamical RAM for                 wfc:       0.11 MB

     Dynamical RAM for     wfc (w. buffer):       0.11 MB

     Dynamical RAM for           str. fact:       0.03 MB

     Dynamical RAM for           local pot:       0.00 MB

     Dynamical RAM for          nlocal pot:       0.02 MB

     Dynamical RAM for                qrad:       0.38 MB

     Dynamical RAM for          rho,v,vnew:       0.11 MB

     Dynamical RAM for           G-vectors:       0.05 MB

     Dynamical RAM for          h,s,v(r/c):       0.90 MB

     Dynamical RAM for          <psi|beta>:       0.01 MB

     Dynamical RAM for                 psi:       0.22 MB

     Dynamical RAM for                hpsi:       0.22 MB

     Dynamical RAM for      wfcinit/wfcrot:       0.33 MB

     Estimated static dynamical RAM per process >       0.87 MB

     Estimated max dynamical RAM per process >       2.22 MB

     Estimated total dynamical RAM >      62.18 MB

     The potential is recalculated from file :
     run_output/GaAs.save/charge-density

     Starting wfcs are   13 randomized atomic wfcs +   57 random wfcs

     Band Structure Calculation
     Davidson diagonalization with overlap

     Computing kpt #:     1  of    47
     total cpu time spent up to now is        0.6 secs

     Computing kpt #:     2  of    47
     total cpu time spent up to now is        0.9 secs

     Computing kpt #:     3  of    47
     total cpu time spent up to now is        1.3 secs

     Computing kpt #:     4  of    47
     total cpu time spent up to now is        1.6 secs

     Computing kpt #:     5  of    47
     total cpu time spent up to now is        2.0 secs

     Computing kpt #:     6  of    47
     total cpu time spent up to now is        2.3 secs

     Computing kpt #:     7  of    47
     total cpu time spent up to now is        2.6 secs

     Computing kpt #:     8  of    47
     total cpu time spent up to now is        3.0 secs

     Computing kpt #:     9  of    47
     total cpu time spent up to now is        3.4 secs

     Computing kpt #:    10  of    47
     total cpu time spent up to now is        3.7 secs

     Computing kpt #:    11  of    47
     total cpu time spent up to now is        4.1 secs

     Computing kpt #:    12  of    47
     total cpu time spent up to now is        4.4 secs

     Computing kpt #:    13  of    47
     total cpu time spent up to now is        4.9 secs

     Computing kpt #:    14  of    47
     total cpu time spent up to now is        5.3 secs

     Computing kpt #:    15  of    47
     total cpu time spent up to now is        5.6 secs

     Computing kpt #:    16  of    47
     total cpu time spent up to now is        6.0 secs

     Computing kpt #:    17  of    47
     total cpu time spent up to now is        6.3 secs

     Computing kpt #:    18  of    47
     total cpu time spent up to now is        6.7 secs

     Computing kpt #:    19  of    47
     total cpu time spent up to now is        7.0 secs

     Computing kpt #:    20  of    47
     total cpu time spent up to now is        7.4 secs

     Computing kpt #:    21  of    47
     total cpu time spent up to now is        7.7 secs

     Computing kpt #:    22  of    47
     total cpu time spent up to now is        8.1 secs

     Computing kpt #:    23  of    47
     total cpu time spent up to now is        8.5 secs

     Computing kpt #:    24  of    47
     total cpu time spent up to now is        8.9 secs

     Computing kpt #:    25  of    47
     total cpu time spent up to now is        9.2 secs

     Computing kpt #:    26  of    47
     total cpu time spent up to now is        9.6 secs

     Computing kpt #:    27  of    47
     total cpu time spent up to now is       10.1 secs

     Computing kpt #:    28  of    47
     total cpu time spent up to now is       10.4 secs

     Computing kpt #:    29  of    47
     total cpu time spent up to now is       10.8 secs

     Computing kpt #:    30  of    47
     total cpu time spent up to now is       11.2 secs

     Computing kpt #:    31  of    47
     total cpu time spent up to now is       11.6 secs

     Computing kpt #:    32  of    47
     total cpu time spent up to now is       11.9 secs

     Computing kpt #:    33  of    47
     total cpu time spent up to now is       12.3 secs

     Computing kpt #:    34  of    47
     total cpu time spent up to now is       12.6 secs

     Computing kpt #:    35  of    47
     total cpu time spent up to now is       13.0 secs

     Computing kpt #:    36  of    47
     total cpu time spent up to now is       13.4 secs

     Computing kpt #:    37  of    47
     total cpu time spent up to now is       13.8 secs

     Computing kpt #:    38  of    47
     total cpu time spent up to now is       14.2 secs

     Computing kpt #:    39  of    47
     total cpu time spent up to now is       14.5 secs

     Computing kpt #:    40  of    47
     total cpu time spent up to now is       14.9 secs

     Computing kpt #:    41  of    47
     total cpu time spent up to now is       15.3 secs

     Computing kpt #:    42  of    47
     total cpu time spent up to now is       15.7 secs

     Computing kpt #:    43  of    47
     total cpu time spent up to now is       16.0 secs

     Computing kpt #:    44  of    47
     total cpu time spent up to now is       16.4 secs

     Computing kpt #:    45  of    47
     total cpu time spent up to now is       16.8 secs

     Computing kpt #:    46  of    47
     total cpu time spent up to now is       17.2 secs

     Computing kpt #:    47  of    47
     total cpu time spent up to now is       17.5 secs

     ethr =  5.00E-06,  avg # of iterations = 17.4

     total cpu time spent up to now is       17.5 secs

     End of band structure calculation

          k = 0.0000 0.0000 0.0000 (  2891 PWs)   bands (ev):

    -7.8527   5.0027   5.0027   5.0027   5.8020   8.7765   8.7765   8.7765
    12.6381  15.2615  15.2615  16.6895  16.6895  16.6895  19.5549  29.5630
    29.5630  29.5630  31.6644  31.6644  31.6644  33.0858  33.0858  33.5463
    33.5463  33.5463  41.3243  43.6346  43.6346  43.6346  44.9962  44.9962
    44.9962  45.9839  45.9839  47.7944  47.7944  47.7944  48.0716  48.0716
    48.3284  48.3284  48.3284  48.6248  48.7466  48.7466  48.7466  49.3432
    49.3432  49.3432  53.2398  54.2838  54.2838  54.2838  55.1233  55.1233
    55.1233  58.9188  60.9051  70.3884  70.3884  70.3884  71.8513  71.8513
    74.2566  76.4294  76.4294  76.4294  81.3005  81.3005

     occupation numbers 
     1.0000   1.0000   1.0000   1.0000   0.0000   0.0000   0.0000   0.0000
     0.0000   0.0000   0.0000   0.0000   0.0000   0.0000   0.0000   0.0000
     0.0000   0.0000   0.0000   0.0000   0.0000   0.0000   0.0000   0.0000
     0.0000   0.0000   0.0000   0.0000   0.0000   0.0000   0.0000   0.0000
     0.0000   0.0000   0.0000   0.0000   0.0000   0.0000   0.0000   0.0000
     0.0000   0.0000   0.0000   0.0000   0.0000   0.0000   0.0000   0.0000
     0.0000   0.0000   0.0000   0.0000   0.0000   0.0000   0.0000   0.0000
     0.0000   0.0000   0.0000   0.0000   0.0000   0.0000   0.0000   0.0000
     0.0000   0.0000   0.0000   0.0000   0.0000   0.0000

          k = 0.0707 0.0707-0.0707 (  2924 PWs)   bands (ev):

    -7.7435   3.5179   4.8419   4.8419   6.6934   9.0177   9.0177   9.0388
    13.3064  14.5513  14.5513  16.1414  17.8580  17.8580  20.5740  27.7933
    28.2660  28.2660  30.9859  30.9859  32.5494  32.5494  33.3188  33.6636
    36.4973  36.4973  39.9443  41.9640  41.9640  42.4392  43.7740  43.7740
    44.7105  44.7105  45.7164  46.1417  46.3683  46.3683  47.4116  47.8193
    47.8193  48.3474  49.2671  49.2671  49.8467  50.7434  50.7434  51.2060
    51.8408  52.8219  52.8219  53.5623  53.5623  54.0804  56.8169  56.8169
    57.8306  60.1918  61.4825  67.6313  67.6313  69.4581  72.9296  73.5605
    73.5605  75.8897  75.8897  77.7829  77.9861  77.9861

     occupation numbers 
     1.0000   1.0000   1.0000   1.0000   0.0000   0.0000   0.0000   0.0000
     0.0000   0.0000   0.0000   0.0000   0.0000   0.0000   0.0000   0.0000
     0.0000   0.0000   0.0000   0.0000   0.0000   0.0000   0.0000   0.0000
     0.0000   0.0000   0.0000   0.0000   0.0000   0.0000   0.0000   0.0000
     0.0000   0.0000   0.0000   0.0000   0.0000   0.0000   0.0000   0.0000
     0.0000   0.0000   0.0000   0.0000   0.0000   0.0000   0.0000   0.0000
     0.0000   0.0000   0.0000   0.0000   0.0000   0.0000   0.0000   0.0000
     0.0000   0.0000   0.0000   0.0000   0.0000   0.0000   0.0000   0.0000
     0.0000   0.0000   0.0000   0.0000   0.0000   0.0000

          k = 0.1414 0.1414-0.1414 (  2929 PWs)   bands (ev):

    -7.4263   1.6668   4.4965   4.4965   6.7368   9.4824   9.4824  10.2622
    14.0364  14.0364  14.1368  16.2069  19.8614  19.8614  22.6245  25.3527
    25.4772  25.4772  31.0194  31.0194  32.7788  32.7788  34.0040  35.3876
    36.7203  38.6626  38.6626  40.2593  40.2593  41.5423  41.5423  41.5684
    42.6042  42.6042  43.8483  44.0005  46.1859  46.1859  47.2437  47.7713
    48.0796  48.0796  49.0056  51.1815  51.1815  52.8486  52.8486  53.5342
    53.9507  53.9507  55.0776  55.7137  58.1413  58.1413  58.3643  59.3412
    59.3412  61.2966  64.4217  64.4217  66.0654  66.9603  69.8089  69.8089
    72.0991  74.2376  74.2376  77.2554  77.2554  77.7193

     occupation numbers 
     1.0000   1.0000   1.0000   1.0000   0.0000   0.0000   0.0000   0.0000
     0.0000   0.0000   0.0000   0.0000   0.0000   0.0000   0.0000   0.0000
     0.0000   0.0000   0.0000   0.0000   0.0000   0.0000   0.0000   0.0000
     0.0000   0.0000   0.0000   0.0000   0.0000   0.0000   0.0000   0.0000
     0.0000   0.0000   0.0000   0.0000   0.0000   0.0000   0.0000   0.0000
     0.0000   0.0000   0.0000   0.0000   0.0000   0.0000   0.0000   0.0000
     0.0000   0.0000   0.0000   0.0000   0.0000   0.0000   0.0000   0.0000
     0.0000   0.0000   0.0000   0.0000   0.0000   0.0000   0.0000   0.0000
     0.0000   0.0000   0.0000   0.0000   0.0000   0.0000

          k = 0.2121 0.2121-0.2121 (  2926 PWs)   bands (ev):

    -6.9453  -0.0003   4.1613   4.1613   6.4194   9.7204   9.7204  11.8363
    13.8517  14.4320  14.4320  18.0517  22.0530  22.0530  22.8561  22.8561
    23.0887  25.3016  31.2926  31.2926  33.0452  33.1121  33.1121  34.5216
    35.2177  35.2177  37.0664  39.6497  39.7007  39.7007  40.7363  40.7363
    41.7378  41.9241  44.4069  44.4069  46.2913  46.2913  46.8631  47.7585
    47.7585  47.8873  49.9384  52.7129  52.7129  54.4349  54.9886  54.9886
    57.2946  57.2946  57.3386  58.6230  60.2214  61.1904  61.1904  62.2945
    62.2945  62.9131  63.6034  63.6034  64.4885  64.8163  64.8163  70.0973
    70.0973  70.6450  72.5097  74.1479  74.1479  74.7858

     occupation numbers 
     1.0000   1.0000   1.0000   1.0000   0.0000   0.0000   0.0000   0.0000
     0.0000   0.0000   0.0000   0.0000   0.0000   0.0000   0.0000   0.0000
     0.0000   0.0000   0.0000   0.0000   0.0000   0.0000   0.0000   0.0000
     0.0000   0.0000   0.0000   0.0000   0.0000   0.0000   0.0000   0.0000
     0.0000   0.0000   0.0000   0.0000   0.0000   0.0000   0.0000   0.0000
     0.0000   0.0000   0.0000   0.0000   0.0000   0.0000   0.0000   0.0000
     0.0000   0.0000   0.0000   0.0000   0.0000   0.0000   0.0000   0.0000
     0.0000   0.0000   0.0000   0.0000   0.0000   0.0000   0.0000   0.0000
     0.0000   0.0000   0.0000   0.0000   0.0000   0.0000

          k = 0.2828 0.2828-0.2828 (  2947 PWs)   bands (ev):

    -6.4274  -1.2577   3.9357   3.9357   6.1763   9.6895   9.6895  12.6865
    14.3503  15.6989  15.6989  18.7337  20.0645  20.0645  23.0181  24.9673
    24.9673  27.9171  29.8750  30.7574  30.7574  32.3361  32.3361  33.8633
    33.8633  35.0822  35.1806  38.5878  38.5878  39.2727  39.4746  39.4746
    40.5172  40.9908  45.9344  45.9344  46.5486  46.9592  46.9592  48.1307
    49.4621  49.4621  50.7669  54.3699  54.3699  54.6052  57.4345  57.4345
    58.4587  58.7551  58.7551  60.1754  60.1754  60.8734  61.0943  61.0943
    62.4609  63.8070  65.2599  65.2599  66.1875  66.1875  66.4457  69.2600
    69.2600  69.6378  69.6378  69.9736  70.9790  72.0543

     occupation numbers 
     1.0000   1.0000   1.0000   1.0000   0.0000   0.0000   0.0000   0.0000
     0.0000   0.0000   0.0000   0.0000   0.0000   0.0000   0.0000   0.0000
     0.0000   0.0000   0.0000   0.0000   0.0000   0.0000   0.0000   0.0000
     0.0000   0.0000   0.0000   0.0000   0.0000   0.0000   0.0000   0.0000
     0.0000   0.0000   0.0000   0.0000   0.0000   0.0000   0.0000   0.0000
     0.0000   0.0000   0.0000   0.0000   0.0000   0.0000   0.0000   0.0000
     0.0000   0.0000   0.0000   0.0000   0.0000   0.0000   0.0000   0.0000
     0.0000   0.0000   0.0000   0.0000   0.0000   0.0000   0.0000   0.0000
     0.0000   0.0000   0.0000   0.0000   0.0000   0.0000

          k =-0.3536-0.3536 0.3536 (  2938 PWs)   bands (ev):

    -6.1726  -1.7631   3.8574   3.8574   6.0907   9.6435   9.6435  12.7000
    15.2892  17.0638  17.0638  17.9486  18.3149  18.3149  24.7539  26.8995
    27.5947  27.5947  28.2101  28.2101  31.4216  32.0329  32.2110  32.2110
    34.0028  34.0028  35.3605  38.1835  38.1835  38.9791  38.9791  39.9566
    39.9824  40.4738  46.2206  46.2206  46.4090  46.5824  46.5824  48.4180
    50.6410  53.6838  53.6838  54.0497  54.0497  56.1661  56.4271  56.4271
    56.6483  56.8788  56.8788  61.7231  61.7231  62.3124  62.3124  62.3332
    63.9532  64.8252  64.8252  65.5003  65.5003  66.5243  66.6435  67.8455
    68.8353  69.1907  69.1907  69.4228  69.4228  72.1392

     occupation numbers 
     1.0000   1.0000   1.0000   1.0000   0.0000   0.0000   0.0000   0.0000
     0.0000   0.0000   0.0000   0.0000   0.0000   0.0000   0.0000   0.0000
     0.0000   0.0000   0.0000   0.0000   0.0000   0.0000   0.0000   0.0000
     0.0000   0.0000   0.0000   0.0000   0.0000   0.0000   0.0000   0.0000
     0.0000   0.0000   0.0000   0.0000   0.0000   0.0000   0.0000   0.0000
     0.0000   0.0000   0.0000   0.0000   0.0000   0.0000   0.0000   0.0000
     0.0000   0.0000   0.0000   0.0000   0.0000   0.0000   0.0000   0.0000
     0.0000   0.0000   0.0000   0.0000   0.0000   0.0000   0.0000   0.0000
     0.0000   0.0000   0.0000   0.0000   0.0000   0.0000

          k = 0.1414 0.0000 0.0000 (  2918 PWs)   bands (ev):

    -7.7068   3.4910   4.5358   4.5358   7.2278   8.2904   9.4401   9.4401
    13.4077  13.6797  15.4325  17.0419  17.0419  17.7416  21.1319  27.6466
    27.6466  28.3728  29.9132  31.7130  31.7130  31.8238  34.1018  35.8442
    35.8442  37.0466  39.6032  41.1544  41.1544  42.3019  43.7373  44.2192
    44.2192  44.3682  45.2138  45.9503  46.5046  46.5046  46.7116  47.7509
    47.7509  49.0554  49.8406  50.4044  50.4044  50.7105  50.7859  51.2167
    51.6321  51.6321  53.3225  53.5100  53.5100  54.3661  57.1873  58.6958
    58.6958  60.0323  61.3677  65.2163  70.1682  70.1682  72.0068  72.7750
    74.4486  74.4486  75.3362  76.4689  78.5543  78.5543

     occupation numbers 
     1.0000   1.0000   1.0000   1.0000   0.0000   0.0000   0.0000   0.0000
     0.0000   0.0000   0.0000   0.0000   0.0000   0.0000   0.0000   0.0000
     0.0000   0.0000   0.0000   0.0000   0.0000   0.0000   0.0000   0.0000
     0.0000   0.0000   0.0000   0.0000   0.0000   0.0000   0.0000   0.0000
     0.0000   0.0000   0.0000   0.0000   0.0000   0.0000   0.0000   0.0000
     0.0000   0.0000   0.0000   0.0000   0.0000   0.0000   0.0000   0.0000
     0.0000   0.0000   0.0000   0.0000   0.0000   0.0000   0.0000   0.0000
     0.0000   0.0000   0.0000   0.0000   0.0000   0.0000   0.0000   0.0000
     0.0000   0.0000   0.0000   0.0000   0.0000   0.0000

          k = 0.2121 0.0707-0.0707 (  2916 PWs)   bands (ev):

    -7.4578   2.0907   4.1312   4.1995   7.5510   8.4156  10.0491  10.2245
    12.9468  14.6066  15.1177  16.6382  18.4057  19.4631  22.9491  25.3272
    25.3282  27.6007  29.3235  29.9543  31.9539  33.5774  35.1718  36.5155
    36.8756  38.5145  39.1739  39.2722  40.0309  40.2396  41.6267  41.8127
    43.0264  43.2247  44.6198  45.3458  45.7617  46.3541  47.2955  47.3023
    48.7859  48.8339  49.2341  50.1708  50.5285  51.5568  52.4020  52.6197
    53.3455  54.5776  55.3090  55.6009  56.3429  57.5988  58.0575  59.1167
    61.0921  61.6109  62.6226  64.9937  67.5112  68.6978  70.3346  70.6932
    73.2749  73.5464  75.3646  75.3816  76.6508  77.1249

     occupation numbers 
     1.0000   1.0000   1.0000   1.0000   0.0000   0.0000   0.0000   0.0000
     0.0000   0.0000   0.0000   0.0000   0.0000   0.0000   0.0000   0.0000
     0.0000   0.0000   0.0000   0.0000   0.0000   0.0000   0.0000   0.0000
     0.0000   0.0000   0.0000   0.0000   0.0000   0.0000   0.0000   0.0000
     0.0000   0.0000   0.0000   0.0000   0.0000   0.0000   0.0000   0.0000
     0.0000   0.0000   0.0000   0.0000   0.0000   0.0000   0.0000   0.0000
     0.0000   0.0000   0.0000   0.0000   0.0000   0.0000   0.0000   0.0000
     0.0000   0.0000   0.0000   0.0000   0.0000   0.0000   0.0000   0.0000
     0.0000   0.0000   0.0000   0.0000   0.0000   0.0000

          k = 0.2828 0.1414-0.1414 (  2932 PWs)   bands (ev):

    -7.0267   0.4799   3.7544   3.8046   7.3130   9.0463  10.3879  10.9261
    13.5210  14.8882  15.2604  17.6148  20.5344  21.8481  22.5567  22.8488
    25.0668  25.8414  29.5830  29.6541  32.3158  33.2873  34.2606  35.8958
    36.6485  37.1660  37.3465  37.9211  38.2459  40.4644  41.1149  41.3901
    42.1797  42.8698  44.1875  44.1968  45.2114  46.3056  46.3765  47.9062
    48.6122  49.0793  50.3874  51.4133  52.2424  52.7758  53.0928  55.3811
    56.0499  56.8718  57.2632  58.8019  59.3170  59.3289  60.6060  60.6621
    63.1165  63.4070  64.3506  64.7860  65.6950  66.1519  68.0128  69.6176
    69.6530  70.7737  72.3766  73.6319  74.1961  74.6894

     occupation numbers 
     1.0000   1.0000   1.0000   1.0000   0.0000   0.0000   0.0000   0.0000
     0.0000   0.0000   0.0000   0.0000   0.0000   0.0000   0.0000   0.0000
     0.0000   0.0000   0.0000   0.0000   0.0000   0.0000   0.0000   0.0000
     0.0000   0.0000   0.0000   0.0000   0.0000   0.0000   0.0000   0.0000
     0.0000   0.0000   0.0000   0.0000   0.0000   0.0000   0.0000   0.0000
     0.0000   0.0000   0.0000   0.0000   0.0000   0.0000   0.0000   0.0000
     0.0000   0.0000   0.0000   0.0000   0.0000   0.0000   0.0000   0.0000
     0.0000   0.0000   0.0000   0.0000   0.0000   0.0000   0.0000   0.0000
     0.0000   0.0000   0.0000   0.0000   0.0000   0.0000

          k = 0.3536 0.2121-0.2121 (  2946 PWs)   bands (ev):

    -6.5039  -0.8806   3.3370   3.6344   7.0539   9.3066  10.3115  11.9332
    14.2686  15.3371  16.3057  18.5805  19.8693  21.7047  23.1476  23.3125
    24.6893  27.9126  29.7749  29.9921  30.1706  32.2667  32.4549  34.2151
    34.8514  36.2759  36.3016  36.9888  37.6209  39.2740  39.7333  40.2719
    41.9665  43.3531  43.8337  45.0618  45.7383  46.3639  48.1129  49.2079
    49.5657  49.8528  51.7071  51.8583  52.7086  54.0979  56.0752  56.3379
    57.6633  58.5760  59.3716  59.4723  60.2947  61.4473  62.4671  62.4868
    63.1898  63.7216  64.2892  65.2190  66.1324  66.1596  67.4160  67.9490
    68.8962  69.4299  69.8375  70.5179  72.2598  72.8248

     occupation numbers 
     1.0000   1.0000   1.0000   1.0000   0.0000   0.0000   0.0000   0.0000
     0.0000   0.0000   0.0000   0.0000   0.0000   0.0000   0.0000   0.0000
     0.0000   0.0000   0.0000   0.0000   0.0000   0.0000   0.0000   0.0000
     0.0000   0.0000   0.0000   0.0000   0.0000   0.0000   0.0000   0.0000
     0.0000   0.0000   0.0000   0.0000   0.0000   0.0000   0.0000   0.0000
     0.0000   0.0000   0.0000   0.0000   0.0000   0.0000   0.0000   0.0000
     0.0000   0.0000   0.0000   0.0000   0.0000   0.0000   0.0000   0.0000
     0.0000   0.0000   0.0000   0.0000   0.0000   0.0000   0.0000   0.0000
     0.0000   0.0000   0.0000   0.0000   0.0000   0.0000

          k =-0.2828-0.4243 0.4243 (  2926 PWs)   bands (ev):

    -6.1248  -1.6539   3.0539   3.6443   6.9160   9.3649  10.0963  12.9294
    14.6817  16.3734  17.0523  17.8706  18.5330  20.5518  24.2662  25.9247
    26.7194  27.4989  28.5562  29.8790  30.5428  30.6938  31.3656  33.4465
    33.4957  35.1466  35.5683  35.6463  37.8787  39.0788  39.2988  40.5062
    42.1609  42.8302  43.0205  44.4453  45.4887  48.3603  48.7732  49.9884
    51.3374  52.3046  52.8016  53.0650  53.6756  54.1071  54.8541  56.9877
    57.6724  59.3178  59.4361  60.3351  60.4681  61.4093  62.1222  62.7090
    62.8576  64.1813  65.1107  65.4306  66.0640  66.6160  66.7399  68.8373
    68.8513  69.5303  70.5891  70.7142  71.2591  72.1260

     occupation numbers 
     1.0000   1.0000   1.0000   1.0000   0.0000   0.0000   0.0000   0.0000
     0.0000   0.0000   0.0000   0.0000   0.0000   0.0000   0.0000   0.0000
     0.0000   0.0000   0.0000   0.0000   0.0000   0.0000   0.0000   0.0000
     0.0000   0.0000   0.0000   0.0000   0.0000   0.0000   0.0000   0.0000
     0.0000   0.0000   0.0000   0.0000   0.0000   0.0000   0.0000   0.0000
     0.0000   0.0000   0.0000   0.0000   0.0000   0.0000   0.0000   0.0000
     0.0000   0.0000   0.0000   0.0000   0.0000   0.0000   0.0000   0.0000
     0.0000   0.0000   0.0000   0.0000   0.0000   0.0000   0.0000   0.0000
     0.0000   0.0000   0.0000   0.0000   0.0000   0.0000

          k =-0.2121-0.3536 0.3536 (  2932 PWs)   bands (ev):

    -6.2140  -1.4830   2.9511   3.8269   6.9337   9.5220   9.9348  12.9283
    14.7154  15.3109  16.8404  18.0083  19.9494  20.4622  23.2952  25.1034
    27.0769  27.9252  28.8642  29.7787  30.4969  30.5616  31.5748  33.3182
    34.2099  35.4117  35.7770  35.8232  37.8336  39.2488  39.4567  40.4126
    42.4688  42.9288  43.0817  44.0055  45.4002  48.2744  49.0257  49.9988
    50.2511  50.7794  51.4279  53.0360  55.1414  55.6317  56.4000  57.0268
    57.4351  58.0145  58.7023  59.2737  60.5384  61.4498  61.6708  62.0842
    63.9348  64.4234  64.9974  65.0973  66.0010  66.6749  67.0989  68.0400
    69.1587  69.7907  70.7343  70.7937  71.1561  72.6134

     occupation numbers 
     1.0000   1.0000   1.0000   1.0000   0.0000   0.0000   0.0000   0.0000
     0.0000   0.0000   0.0000   0.0000   0.0000   0.0000   0.0000   0.0000
     0.0000   0.0000   0.0000   0.0000   0.0000   0.0000   0.0000   0.0000
     0.0000   0.0000   0.0000   0.0000   0.0000   0.0000   0.0000   0.0000
     0.0000   0.0000   0.0000   0.0000   0.0000   0.0000   0.0000   0.0000
     0.0000   0.0000   0.0000   0.0000   0.0000   0.0000   0.0000   0.0000
     0.0000   0.0000   0.0000   0.0000   0.0000   0.0000   0.0000   0.0000
     0.0000   0.0000   0.0000   0.0000   0.0000   0.0000   0.0000   0.0000
     0.0000   0.0000   0.0000   0.0000   0.0000   0.0000

          k =-0.1414-0.2828 0.2828 (  2930 PWs)   bands (ev):

    -6.6803  -0.4680   3.0552   4.1481   7.1001   9.7485   9.7994  11.8566
    13.8802  14.4863  16.3348  18.3050  20.5553  21.8738  22.8775  23.2985
    24.4262  26.7951  29.4880  30.1345  31.5986  32.5248  33.2184  33.8468
    35.2380  36.5722  36.9484  37.5054  38.0208  39.3788  40.1666  40.6783
    43.0830  43.3873  43.4684  44.1852  45.3285  45.5253  46.8721  48.4630
    49.9108  50.0819  50.9239  51.6323  53.3415  54.9263  55.8479  56.0334
    57.4140  57.5911  58.5110  59.2982  59.7533  60.8250  61.2429  61.6250
    63.0497  63.5156  64.2538  65.2475  65.6164  66.7694  66.8448  67.9592
    69.1546  69.6956  70.8862  72.2841  72.9755  74.4299

     occupation numbers 
     1.0000   1.0000   1.0000   1.0000   0.0000   0.0000   0.0000   0.0000
     0.0000   0.0000   0.0000   0.0000   0.0000   0.0000   0.0000   0.0000
     0.0000   0.0000   0.0000   0.0000   0.0000   0.0000   0.0000   0.0000
     0.0000   0.0000   0.0000   0.0000   0.0000   0.0000   0.0000   0.0000
     0.0000   0.0000   0.0000   0.0000   0.0000   0.0000   0.0000   0.0000
     0.0000   0.0000   0.0000   0.0000   0.0000   0.0000   0.0000   0.0000
     0.0000   0.0000   0.0000   0.0000   0.0000   0.0000   0.0000   0.0000
     0.0000   0.0000   0.0000   0.0000   0.0000   0.0000   0.0000   0.0000
     0.0000   0.0000   0.0000   0.0000   0.0000   0.0000

          k =-0.0707-0.2121 0.2121 (  2912 PWs)   bands (ev):

    -7.1888   0.9917   3.3934   4.5338   7.3417   9.4984   9.5636  10.7945
    13.2763  14.4002  15.3518  17.1656  19.4444  21.8068  22.5241  24.0357
    25.3821  25.7298  29.1220  29.8724  32.4282  33.7279  34.9839  36.2272
    36.5799  37.1604  37.5820  38.7317  39.3413  40.5952  41.3547  41.7568
    42.5112  43.2621  43.8209  43.9658  44.5381  45.7605  45.9837  47.0074
    49.7320  50.2555  50.2841  50.6181  51.0633  52.6970  53.7909  54.5781
    55.5587  55.5634  56.6689  57.9815  58.0645  59.3183  59.4155  61.0834
    61.3405  61.5154  62.7900  65.0262  66.3882  68.2823  69.1067  69.3968
    70.3188  70.9965  73.2950  74.9331  75.5855  75.7438

     occupation numbers 
     1.0000   1.0000   1.0000   1.0000   0.0000   0.0000   0.0000   0.0000
     0.0000   0.0000   0.0000   0.0000   0.0000   0.0000   0.0000   0.0000
     0.0000   0.0000   0.0000   0.0000   0.0000   0.0000   0.0000   0.0000
     0.0000   0.0000   0.0000   0.0000   0.0000   0.0000   0.0000   0.0000
     0.0000   0.0000   0.0000   0.0000   0.0000   0.0000   0.0000   0.0000
     0.0000   0.0000   0.0000   0.0000   0.0000   0.0000   0.0000   0.0000
     0.0000   0.0000   0.0000   0.0000   0.0000   0.0000   0.0000   0.0000
     0.0000   0.0000   0.0000   0.0000   0.0000   0.0000   0.0000   0.0000
     0.0000   0.0000   0.0000   0.0000   0.0000   0.0000

          k = 0.0000-0.1414 0.1414 (  2900 PWs)   bands (ev):

    -7.5643   2.5056   4.0344   4.8343   7.2760   8.9367   9.0890  10.0762
    13.6026  14.1122  14.4629  16.9439  17.4730  19.6370  21.9461  25.3242
    27.1793  28.1430  29.2417  30.1694  32.2150  33.2148  34.5572  36.5708
    36.6580  38.1238  39.5066  39.7519  39.7861  41.4058  42.0679  43.2119
    43.3209  43.6198  44.4804  45.3798  45.6118  46.2776  47.5266  47.6380
    47.8772  48.9230  49.8610  50.1733  50.7699  50.9187  51.4632  51.6874
    53.2272  54.7923  55.0831  55.3083  55.4123  55.9596  56.8374  58.0066
    59.1984  62.0764  63.6778  64.2945  66.0898  69.9009  70.5559  73.0259
    73.3859  74.1256  75.1148  75.5004  76.7855  77.7316

     occupation numbers 
     1.0000   1.0000   1.0000   1.0000   0.0000   0.0000   0.0000   0.0000
     0.0000   0.0000   0.0000   0.0000   0.0000   0.0000   0.0000   0.0000
     0.0000   0.0000   0.0000   0.0000   0.0000   0.0000   0.0000   0.0000
     0.0000   0.0000   0.0000   0.0000   0.0000   0.0000   0.0000   0.0000
     0.0000   0.0000   0.0000   0.0000   0.0000   0.0000   0.0000   0.0000
     0.0000   0.0000   0.0000   0.0000   0.0000   0.0000   0.0000   0.0000
     0.0000   0.0000   0.0000   0.0000   0.0000   0.0000   0.0000   0.0000
     0.0000   0.0000   0.0000   0.0000   0.0000   0.0000   0.0000   0.0000
     0.0000   0.0000   0.0000   0.0000   0.0000   0.0000

          k = 0.2828 0.0000 0.0000 (  2902 PWs)   bands (ev):

    -7.2795   1.7182   3.6818   3.6818   7.2956   8.4721  10.8697  10.8697
    12.3098  15.4526  15.9431  18.1051  18.1051  18.7928  24.5759  24.7734
    24.7734  26.3507  26.8837  32.0977  32.0977  32.3068  35.1352  36.3802
    37.0646  37.0646  38.6143  39.4960  39.4960  40.9215  41.6415  42.3514
    42.3514  43.3921  44.2692  45.0527  45.0527  45.4657  46.5786  48.2932
    48.2932  48.5382  50.0505  50.8282  50.8282  52.1772  53.1258  53.1258
    53.2514  53.8273  55.3589  56.8088  58.5272  58.6628  58.6628  60.4608
    63.0697  63.4316  63.4316  65.3612  67.9152  67.9152  70.7975  71.9624
    72.5898  72.5898  72.9200  74.8945  74.8945  75.1963

     occupation numbers 
     1.0000   1.0000   1.0000   1.0000   0.0000   0.0000   0.0000   0.0000
     0.0000   0.0000   0.0000   0.0000   0.0000   0.0000   0.0000   0.0000
     0.0000   0.0000   0.0000   0.0000   0.0000   0.0000   0.0000   0.0000
     0.0000   0.0000   0.0000   0.0000   0.0000   0.0000   0.0000   0.0000
     0.0000   0.0000   0.0000   0.0000   0.0000   0.0000   0.0000   0.0000
     0.0000   0.0000   0.0000   0.0000   0.0000   0.0000   0.0000   0.0000
     0.0000   0.0000   0.0000   0.0000   0.0000   0.0000   0.0000   0.0000
     0.0000   0.0000   0.0000   0.0000   0.0000   0.0000   0.0000   0.0000
     0.0000   0.0000   0.0000   0.0000   0.0000   0.0000

          k = 0.3536 0.0707-0.0707 (  2919 PWs)   bands (ev):

    -6.9121   0.6168   3.1563   3.3282   7.3046   8.5379  10.9809  11.4775
    13.3073  16.1720  16.3734  18.1345  19.5652  20.8669  22.5160  22.7276
    25.8190  26.5233  26.7903  30.1000  32.3805  32.7641  34.3177  35.1378
    35.1874  36.5909  37.7044  38.5835  39.5829  40.9928  41.5383  41.6965
    42.0157  43.7489  44.0788  44.3977  45.1475  45.3275  47.5500  47.6938
    48.5761  49.1225  50.1995  50.6801  51.9307  52.0452  53.0944  54.9710
    55.0899  56.4023  57.7220  58.0235  58.7147  60.4122  61.4053  63.3827
    63.9517  64.2310  65.9024  66.3764  67.0923  68.9280  68.9587  69.5210
    69.6747  70.6298  70.8801  72.4212  73.4192  73.7329

     occupation numbers 
     1.0000   1.0000   1.0000   1.0000   0.0000   0.0000   0.0000   0.0000
     0.0000   0.0000   0.0000   0.0000   0.0000   0.0000   0.0000   0.0000
     0.0000   0.0000   0.0000   0.0000   0.0000   0.0000   0.0000   0.0000
     0.0000   0.0000   0.0000   0.0000   0.0000   0.0000   0.0000   0.0000
     0.0000   0.0000   0.0000   0.0000   0.0000   0.0000   0.0000   0.0000
     0.0000   0.0000   0.0000   0.0000   0.0000   0.0000   0.0000   0.0000
     0.0000   0.0000   0.0000   0.0000   0.0000   0.0000   0.0000   0.0000
     0.0000   0.0000   0.0000   0.0000   0.0000   0.0000   0.0000   0.0000
     0.0000   0.0000   0.0000   0.0000   0.0000   0.0000

          k = 0.4243 0.1414-0.1414 (  2945 PWs)   bands (ev):

    -6.4214  -0.5716   2.5119   3.1514   7.3830   9.2191  10.7649  11.5389
    14.9107  16.4627  17.0012  18.6836  19.8965  21.4979  21.8400  23.6622
    25.1753  26.9141  28.2236  29.2466  29.9009  32.4697  33.1541  33.8070
    34.1399  35.8831  36.6802  37.1940  39.1732  39.7944  39.8278  41.4251
    41.4390  43.4869  43.5288  44.8789  47.5955  47.7545  48.1510  48.8481
    49.6208  49.7293  50.2690  51.5853  52.2013  52.5077  53.4372  55.2351
    57.5562  58.4701  58.6049  59.6074  61.6425  62.7289  63.3263  64.1190
    64.2262  65.1181  65.1972  65.9805  66.5074  66.8464  68.2107  68.5292
    68.6457  69.3860  69.4618  70.0658  70.9872  73.8039

     occupation numbers 
     1.0000   1.0000   1.0000   1.0000   0.0000   0.0000   0.0000   0.0000
     0.0000   0.0000   0.0000   0.0000   0.0000   0.0000   0.0000   0.0000
     0.0000   0.0000   0.0000   0.0000   0.0000   0.0000   0.0000   0.0000
     0.0000   0.0000   0.0000   0.0000   0.0000   0.0000   0.0000   0.0000
     0.0000   0.0000   0.0000   0.0000   0.0000   0.0000   0.0000   0.0000
     0.0000   0.0000   0.0000   0.0000   0.0000   0.0000   0.0000   0.0000
     0.0000   0.0000   0.0000   0.0000   0.0000   0.0000   0.0000   0.0000
     0.0000   0.0000   0.0000   0.0000   0.0000   0.0000   0.0000   0.0000
     0.0000   0.0000   0.0000   0.0000   0.0000   0.0000

          k =-0.2121-0.4950 0.4950 (  2940 PWs)   bands (ev):

    -5.9833  -1.4263   1.9953   3.1778   7.3676   9.7870  11.2668  11.5078
    15.0925  17.0091  17.1124  18.1135  19.0285  22.8450  23.8420  24.3925
    26.1185  26.6285  27.3716  28.6563  30.1562  31.8095  31.9327  32.9850
    33.0286  34.0588  35.7275  36.4114  37.2509  39.0426  40.4273  41.6191
    41.7344  42.8146  43.2476  46.4383  47.3215  47.4293  49.2532  50.1020
    50.5690  51.1549  51.9120  52.2894  53.8660  54.0782  54.9738  55.9170
    56.9628  57.9492  59.6961  60.1721  61.4136  62.1375  62.4833  63.7466
    63.9511  64.5294  64.7342  65.1623  66.1424  67.7068  67.9223  68.8852
    68.8941  69.4949  69.7106  70.5074  72.3596  73.2371

     occupation numbers 
     1.0000   1.0000   1.0000   1.0000   0.0000   0.0000   0.0000   0.0000
     0.0000   0.0000   0.0000   0.0000   0.0000   0.0000   0.0000   0.0000
     0.0000   0.0000   0.0000   0.0000   0.0000   0.0000   0.0000   0.0000
     0.0000   0.0000   0.0000   0.0000   0.0000   0.0000   0.0000   0.0000
     0.0000   0.0000   0.0000   0.0000   0.0000   0.0000   0.0000   0.0000
     0.0000   0.0000   0.0000   0.0000   0.0000   0.0000   0.0000   0.0000
     0.0000   0.0000   0.0000   0.0000   0.0000   0.0000   0.0000   0.0000
     0.0000   0.0000   0.0000   0.0000   0.0000   0.0000   0.0000   0.0000
     0.0000   0.0000   0.0000   0.0000   0.0000   0.0000

          k =-0.1414-0.4243 0.4243 (  2934 PWs)   bands (ev):

    -5.9122  -1.5450   1.7183   3.4005   7.4880   9.8787  10.9424  12.7521
    14.2558  15.2018  16.8012  19.2504  20.9836  21.6834  22.8670  25.9627
    26.6115  27.1301  28.1015  28.3467  29.7335  30.6921  31.9540  32.2258
    32.8596  33.7321  34.9437  36.9041  37.5847  39.0671  40.4191  41.6900
    41.7368  42.4455  43.3018  46.2712  46.9954  47.1748  48.3068  49.9639
    51.6450  51.9041  53.0649  53.2147  54.2232  55.7134  56.2558  56.3265
    57.0648  58.4403  58.4807  60.1173  60.2049  60.3471  61.2264  61.7796
    62.2367  64.4111  65.6761  65.9606  66.6142  66.7843  68.0413  68.6715
    69.2040  70.5662  71.4178  71.7647  72.4380  73.2605

     occupation numbers 
     1.0000   1.0000   1.0000   1.0000   0.0000   0.0000   0.0000   0.0000
     0.0000   0.0000   0.0000   0.0000   0.0000   0.0000   0.0000   0.0000
     0.0000   0.0000   0.0000   0.0000   0.0000   0.0000   0.0000   0.0000
     0.0000   0.0000   0.0000   0.0000   0.0000   0.0000   0.0000   0.0000
     0.0000   0.0000   0.0000   0.0000   0.0000   0.0000   0.0000   0.0000
     0.0000   0.0000   0.0000   0.0000   0.0000   0.0000   0.0000   0.0000
     0.0000   0.0000   0.0000   0.0000   0.0000   0.0000   0.0000   0.0000
     0.0000   0.0000   0.0000   0.0000   0.0000   0.0000   0.0000   0.0000
     0.0000   0.0000   0.0000   0.0000   0.0000   0.0000

          k =-0.0707-0.3536 0.3536 (  2936 PWs)   bands (ev):

    -6.2770  -0.8729   1.7604   3.7794   7.7330  10.0534  10.5797  11.6309
    13.7118  15.3297  17.3113  18.5677  20.0806  22.4647  23.3660  23.6456
    26.2953  27.2938  28.0689  29.1122  30.2639  30.8642  32.6882  32.8018
    33.7204  34.6500  35.5403  38.0335  39.3737  39.8209  40.6861  41.3237
    41.3818  42.2343  42.9539  44.6702  45.5648  47.5762  47.6145  48.3055
    51.7386  52.0814  52.1922  52.8398  53.9042  55.3261  56.0129  56.3396
    56.8465  56.9081  58.8619  59.4664  59.5722  61.1409  61.6422  61.8973
    62.9376  63.5655  64.9389  65.2055  66.1604  67.6375  68.2031  69.0240
    69.3500  70.3541  70.4049  71.0046  72.0460  73.9247

     occupation numbers 
     1.0000   1.0000   1.0000   1.0000   0.0000   0.0000   0.0000   0.0000
     0.0000   0.0000   0.0000   0.0000   0.0000   0.0000   0.0000   0.0000
     0.0000   0.0000   0.0000   0.0000   0.0000   0.0000   0.0000   0.0000
     0.0000   0.0000   0.0000   0.0000   0.0000   0.0000   0.0000   0.0000
     0.0000   0.0000   0.0000   0.0000   0.0000   0.0000   0.0000   0.0000
     0.0000   0.0000   0.0000   0.0000   0.0000   0.0000   0.0000   0.0000
     0.0000   0.0000   0.0000   0.0000   0.0000   0.0000   0.0000   0.0000
     0.0000   0.0000   0.0000   0.0000   0.0000   0.0000   0.0000   0.0000
     0.0000   0.0000   0.0000   0.0000   0.0000   0.0000

          k = 0.0000-0.2828 0.2828 (  2946 PWs)   bands (ev):

    -6.7762   0.1281   2.2742   4.2198   7.8800   9.9773  10.0272  10.6471
    13.0704  15.6957  16.4989  18.1854  19.5941  20.8056  24.0529  24.3767
    25.6966  26.4816  26.8208  28.6805  32.5848  32.9136  34.0379  34.3511
    34.8034  35.3957  38.0906  38.9773  39.3153  40.3063  41.2127  41.4752
    41.7334  42.6772  42.6899  43.1579  43.8285  46.7184  47.9773  48.5761
    49.0580  49.4994  50.9665  53.2354  53.4517  53.6759  54.5358  55.9083
    56.4514  57.9614  58.1544  58.2482  58.9086  58.9272  59.8633  61.9335
    63.4534  64.1113  65.0032  65.2446  65.9855  66.7786  67.9848  69.5720
    70.3159  70.3669  71.3252  72.0163  73.5408  73.5941

     occupation numbers 
     1.0000   1.0000   1.0000   1.0000   0.0000   0.0000   0.0000   0.0000
     0.0000   0.0000   0.0000   0.0000   0.0000   0.0000   0.0000   0.0000
     0.0000   0.0000   0.0000   0.0000   0.0000   0.0000   0.0000   0.0000
     0.0000   0.0000   0.0000   0.0000   0.0000   0.0000   0.0000   0.0000
     0.0000   0.0000   0.0000   0.0000   0.0000   0.0000   0.0000   0.0000
     0.0000   0.0000   0.0000   0.0000   0.0000   0.0000   0.0000   0.0000
     0.0000   0.0000   0.0000   0.0000   0.0000   0.0000   0.0000   0.0000
     0.0000   0.0000   0.0000   0.0000   0.0000   0.0000   0.0000   0.0000
     0.0000   0.0000   0.0000   0.0000   0.0000   0.0000

          k = 0.4243 0.0000 0.0000 (  2926 PWs)   bands (ev):

    -6.6146   0.0677   2.9346   2.9346   6.6491   7.9424  12.5408  12.5408
    13.2126  16.7819  17.6050  19.8699  19.8699  20.2972  22.0810  22.0810
    24.2384  24.4209  28.6863  31.7553  32.2100  32.2100  33.0881  33.4273
    33.4273  34.1989  37.4132  40.1456  40.2491  40.2491  42.6493  43.1839
    43.6155  43.6155  44.4098  44.4098  44.4420  46.1798  46.2695  46.8761
    46.8761  46.8943  49.7452  52.4842  53.5494  53.5494  55.0069  55.7565
    56.0063  56.0063  56.2180  57.4342  61.7937  62.8836  62.8836  63.9214
    64.3331  64.3331  65.7194  68.2574  69.0691  69.0691  70.1053  70.2185
    70.2185  70.3834  70.7928  72.1048  72.1048  72.7952

     occupation numbers 
     1.0000   1.0000   1.0000   1.0000   0.0000   0.0000   0.0000   0.0000
     0.0000   0.0000   0.0000   0.0000   0.0000   0.0000   0.0000   0.0000
     0.0000   0.0000   0.0000   0.0000   0.0000   0.0000   0.0000   0.0000
     0.0000   0.0000   0.0000   0.0000   0.0000   0.0000   0.0000   0.0000
     0.0000   0.0000   0.0000   0.0000   0.0000   0.0000   0.0000   0.0000
     0.0000   0.0000   0.0000   0.0000   0.0000   0.0000   0.0000   0.0000
     0.0000   0.0000   0.0000   0.0000   0.0000   0.0000   0.0000   0.0000
     0.0000   0.0000   0.0000   0.0000   0.0000   0.0000   0.0000   0.0000
     0.0000   0.0000   0.0000   0.0000   0.0000   0.0000

          k = 0.4950 0.0707-0.0707 (  2938 PWs)   bands (ev):

    -6.1868  -0.7507   2.3576   2.7185   6.7887   7.8515  12.4061  13.0170
    14.9147  17.5082  18.0388  19.8353  20.0583  21.0493  21.4461  22.7855
    24.0291  24.3460  28.7916  29.9902  30.8003  31.3534  31.6314  32.9852
    33.3749  35.3972  36.7197  38.7419  39.1491  40.2042  41.0161  42.5250
    43.0262  43.2439  44.2623  45.1110  46.2712  46.3328  47.3162  47.6903
    47.8113  49.6402  49.7842  52.1202  53.2105  53.4214  55.0619  55.7311
    57.9527  58.2401  59.4513  60.6174  61.1776  61.4151  62.7169  63.9798
    65.0521  65.6468  66.0868  66.7556  67.2265  68.0108  68.9394  69.5893
    70.4207  70.4919  70.6663  71.3077  72.2888  72.5015

     occupation numbers 
     1.0000   1.0000   1.0000   1.0000   0.0000   0.0000   0.0000   0.0000
     0.0000   0.0000   0.0000   0.0000   0.0000   0.0000   0.0000   0.0000
     0.0000   0.0000   0.0000   0.0000   0.0000   0.0000   0.0000   0.0000
     0.0000   0.0000   0.0000   0.0000   0.0000   0.0000   0.0000   0.0000
     0.0000   0.0000   0.0000   0.0000   0.0000   0.0000   0.0000   0.0000
     0.0000   0.0000   0.0000   0.0000   0.0000   0.0000   0.0000   0.0000
     0.0000   0.0000   0.0000   0.0000   0.0000   0.0000   0.0000   0.0000
     0.0000   0.0000   0.0000   0.0000   0.0000   0.0000   0.0000   0.0000
     0.0000   0.0000   0.0000   0.0000   0.0000   0.0000

          k =-0.1414-0.5657 0.5657 (  2931 PWs)   bands (ev):

    -5.7655  -1.4147   1.5820   2.7146   6.9359   8.9318  12.0956  12.8338
    15.4979  17.3493  18.1128  19.1522  19.4341  22.4498  23.4793  24.2798
    24.6382  25.6395  26.0948  28.8113  29.5330  29.7004  31.9946  33.3983
    33.5223  34.2427  36.2721  37.0374  38.4998  39.1226  40.2146  41.8743
    42.0555  42.5986  44.6504  45.6601  47.0249  47.8314  47.9514  49.4694
    51.1448  51.3352  51.8747  52.1804  53.7606  53.9431  54.8727  55.5413
    55.8871  59.1081  60.0615  60.8828  62.0351  62.1461  62.6751  63.3556
    63.4782  64.4683  65.4991  66.4802  66.8017  67.6036  68.1299  68.9812
    70.0544  70.5978  70.8424  71.3166  72.3576  72.4691

     occupation numbers 
     1.0000   1.0000   1.0000   1.0000   0.0000   0.0000   0.0000   0.0000
     0.0000   0.0000   0.0000   0.0000   0.0000   0.0000   0.0000   0.0000
     0.0000   0.0000   0.0000   0.0000   0.0000   0.0000   0.0000   0.0000
     0.0000   0.0000   0.0000   0.0000   0.0000   0.0000   0.0000   0.0000
     0.0000   0.0000   0.0000   0.0000   0.0000   0.0000   0.0000   0.0000
     0.0000   0.0000   0.0000   0.0000   0.0000   0.0000   0.0000   0.0000
     0.0000   0.0000   0.0000   0.0000   0.0000   0.0000   0.0000   0.0000
     0.0000   0.0000   0.0000   0.0000   0.0000   0.0000   0.0000   0.0000
     0.0000   0.0000   0.0000   0.0000   0.0000   0.0000

          k =-0.0707-0.4950 0.4950 (  2932 PWs)   bands (ev):

    -5.6067  -1.6147   1.0538   2.9224   7.1262  10.4628  12.1264  12.3563
    13.8613  15.4511  18.7762  19.6775  21.3713  22.3202  23.4459  24.4133
    25.5210  26.6131  27.2556  28.3777  29.0680  29.4988  30.5269  32.3742
    33.4279  34.2206  35.1340  36.0190  38.3080  39.1264  40.6076  41.2534
    41.5025  42.6976  44.4307  45.9867  46.7348  49.5564  50.1445  50.4834
    50.5344  51.4110  51.6630  54.1482  55.0514  55.2738  55.4790  56.0170
    56.9594  57.6230  58.4755  59.0529  59.5514  60.7463  61.6721  63.3432
    63.9846  64.8311  64.9294  66.4062  66.6333  67.2647  67.8845  68.9613
    70.0893  70.7193  71.4572  72.2461  72.7708  73.6114

     occupation numbers 
     1.0000   1.0000   1.0000   1.0000   0.0000   0.0000   0.0000   0.0000
     0.0000   0.0000   0.0000   0.0000   0.0000   0.0000   0.0000   0.0000
     0.0000   0.0000   0.0000   0.0000   0.0000   0.0000   0.0000   0.0000
     0.0000   0.0000   0.0000   0.0000   0.0000   0.0000   0.0000   0.0000
     0.0000   0.0000   0.0000   0.0000   0.0000   0.0000   0.0000   0.0000
     0.0000   0.0000   0.0000   0.0000   0.0000   0.0000   0.0000   0.0000
     0.0000   0.0000   0.0000   0.0000   0.0000   0.0000   0.0000   0.0000
     0.0000   0.0000   0.0000   0.0000   0.0000   0.0000   0.0000   0.0000
     0.0000   0.0000   0.0000   0.0000   0.0000   0.0000

          k =-0.0000-0.4243 0.4243 (  2942 PWs)   bands (ev):

    -5.8450  -1.3057   1.0415   3.3074   7.4804  11.0071  11.6021  11.9188
    13.6655  14.1431  18.8619  19.1996  20.8626  22.8875  23.3388  24.6130
    25.1200  27.3291  28.5525  29.1974  29.4026  29.7628  30.2690  32.2520
    33.7249  33.8500  34.2456  36.1231  39.6770  40.1484  40.9326  40.9705
    41.4079  41.8961  43.8540  45.7013  46.1653  46.9706  50.6050  50.6908
    51.6811  51.8233  52.7720  53.3354  53.7305  55.5384  56.0264  56.1096
    56.1486  57.8785  59.0326  59.4394  60.5108  61.4505  62.2873  62.5937
    62.6273  63.4555  63.9599  64.1380  64.9867  65.3902  69.3127  70.0628
    70.8989  71.5919  71.8286  73.0314  73.5604  74.7034

     occupation numbers 
     1.0000   1.0000   1.0000   1.0000   0.0000   0.0000   0.0000   0.0000
     0.0000   0.0000   0.0000   0.0000   0.0000   0.0000   0.0000   0.0000
     0.0000   0.0000   0.0000   0.0000   0.0000   0.0000   0.0000   0.0000
     0.0000   0.0000   0.0000   0.0000   0.0000   0.0000   0.0000   0.0000
     0.0000   0.0000   0.0000   0.0000   0.0000   0.0000   0.0000   0.0000
     0.0000   0.0000   0.0000   0.0000   0.0000   0.0000   0.0000   0.0000
     0.0000   0.0000   0.0000   0.0000   0.0000   0.0000   0.0000   0.0000
     0.0000   0.0000   0.0000   0.0000   0.0000   0.0000   0.0000   0.0000
     0.0000   0.0000   0.0000   0.0000   0.0000   0.0000

          k = 0.5657 0.0000 0.0000 (  2946 PWs)   bands (ev):

    -5.8499  -1.3030   2.4518   2.4518   6.3391   7.0438  14.2209  14.2209
    14.8575  17.8896  18.9467  19.7436  19.7436  22.0446  22.3312  22.3312
    22.4519  23.9416  28.1513  28.8091  28.8091  29.7737  32.8952  33.6491
    33.6491  34.8071  37.3512  39.0259  39.0259  39.9845  42.3093  42.7222
    43.1852  43.1852  43.9377  44.8081  45.6637  45.6637  45.7353  46.3440
    48.8008  48.8008  50.6225  52.0826  56.8149  56.8149  57.0669  58.2183
    58.2183  58.2512  59.5529  59.5529  59.6275  59.9422  60.6389  65.1224
    65.4036  65.4036  65.9690  66.6999  67.3896  67.3896  68.3521  68.8515
    69.5348  69.5348  69.6993  73.0702  74.0345  74.0345

     occupation numbers 
     1.0000   1.0000   1.0000   1.0000   0.0000   0.0000   0.0000   0.0000
     0.0000   0.0000   0.0000   0.0000   0.0000   0.0000   0.0000   0.0000
     0.0000   0.0000   0.0000   0.0000   0.0000   0.0000   0.0000   0.0000
     0.0000   0.0000   0.0000   0.0000   0.0000   0.0000   0.0000   0.0000
     0.0000   0.0000   0.0000   0.0000   0.0000   0.0000   0.0000   0.0000
     0.0000   0.0000   0.0000   0.0000   0.0000   0.0000   0.0000   0.0000
     0.0000   0.0000   0.0000   0.0000   0.0000   0.0000   0.0000   0.0000
     0.0000   0.0000   0.0000   0.0000   0.0000   0.0000   0.0000   0.0000
     0.0000   0.0000   0.0000   0.0000   0.0000   0.0000

          k =-0.0707-0.6364 0.6364 (  2946 PWs)   bands (ev):

    -5.5368  -1.7364   1.9420   2.3975   6.5503   7.2732  14.0700  14.4262
    15.6993  17.8224  18.2215  19.3152  20.1990  21.9528  22.3556  24.0720
    24.4954  25.3680  25.7376  27.2282  27.5238  29.0889  31.4549  33.8578
    34.7164  35.7180  37.2254  38.6278  38.7793  39.4620  40.7740  41.7805
    42.5252  42.8044  43.0808  43.9545  45.7263  46.5508  47.3094  48.9146
    49.8785  50.4719  52.2165  54.1776  54.6920  56.1344  56.5856  56.7597
    58.6047  58.6758  59.2141  61.0248  61.1328  61.6542  61.9051  62.8757
    63.0990  63.9618  64.7341  66.2067  66.2185  67.0791  68.7512  69.0824
    69.9472  71.1896  71.7637  72.8327  72.9904  73.9152

     occupation numbers 
     1.0000   1.0000   1.0000   1.0000   0.0000   0.0000   0.0000   0.0000
     0.0000   0.0000   0.0000   0.0000   0.0000   0.0000   0.0000   0.0000
     0.0000   0.0000   0.0000   0.0000   0.0000   0.0000   0.0000   0.0000
     0.0000   0.0000   0.0000   0.0000   0.0000   0.0000   0.0000   0.0000
     0.0000   0.0000   0.0000   0.0000   0.0000   0.0000   0.0000   0.0000
     0.0000   0.0000   0.0000   0.0000   0.0000   0.0000   0.0000   0.0000
     0.0000   0.0000   0.0000   0.0000   0.0000   0.0000   0.0000   0.0000
     0.0000   0.0000   0.0000   0.0000   0.0000   0.0000   0.0000   0.0000
     0.0000   0.0000   0.0000   0.0000   0.0000   0.0000

          k = 0.0000-0.5657 0.5657 (  2942 PWs)   bands (ev):

    -5.4363  -1.7934   1.2449   2.5629   6.7500   8.7536  13.5183  13.6986
    14.3951  16.2826  18.9174  20.8456  20.9751  22.2606  22.6869  23.0148
    25.9248  26.2008  26.5145  26.7125  28.5665  29.1018  30.0572  32.2075
    33.7015  36.1980  36.3334  38.1178  38.8038  39.2253  39.7844  40.7254
    41.5624  41.6419  43.6555  46.8711  47.2763  47.5583  49.0558  49.8752
    50.5477  51.3141  52.9544  53.8200  55.2545  55.4784  56.2021  56.5326
    56.7728  58.4734  58.7382  58.9139  59.4051  59.8807  60.6521  63.9263
    65.3830  65.3964  66.5768  66.6933  67.8728  68.5860  68.6640  69.1842
    69.6600  70.3452  70.4992  70.6139  70.8279  72.2535

     occupation numbers 
     1.0000   1.0000   1.0000   1.0000   0.0000   0.0000   0.0000   0.0000
     0.0000   0.0000   0.0000   0.0000   0.0000   0.0000   0.0000   0.0000
     0.0000   0.0000   0.0000   0.0000   0.0000   0.0000   0.0000   0.0000
     0.0000   0.0000   0.0000   0.0000   0.0000   0.0000   0.0000   0.0000
     0.0000   0.0000   0.0000   0.0000   0.0000   0.0000   0.0000   0.0000
     0.0000   0.0000   0.0000   0.0000   0.0000   0.0000   0.0000   0.0000
     0.0000   0.0000   0.0000   0.0000   0.0000   0.0000   0.0000   0.0000
     0.0000   0.0000   0.0000   0.0000   0.0000   0.0000   0.0000   0.0000
     0.0000   0.0000   0.0000   0.0000   0.0000   0.0000

          k =-0.7071 0.0000 0.0000 (  2954 PWs)   bands (ev):

    -5.4304  -1.9281   2.2864   2.2864   6.3657   6.5757  15.2239  15.2239
    15.7776  18.5319  18.5319  18.7241  18.8870  20.8477  24.7953  25.2211
    25.2211  25.2566  25.4486  25.4486  25.6673  26.9082  33.9941  33.9941
    34.1150  36.1955  38.4690  38.4690  38.8446  39.3940  41.6794  41.9743
    42.1536  42.9590  42.9590  43.7591  45.3969  45.3969  45.8236  46.0781
    51.3590  52.8922  52.8922  54.0280  54.0280  55.3213  55.6721  59.8343
    59.8343  60.4673  61.2570  61.6239  61.7376  61.8925  61.8925  62.2120
    62.8058  62.8058  63.5876  63.7225  63.7225  63.8728  66.8846  68.9712
    73.4727  73.4727  73.7394  74.6377  74.8349  74.8349

     occupation numbers 
     1.0000   1.0000   1.0000   1.0000   0.0000   0.0000   0.0000   0.0000
     0.0000   0.0000   0.0000   0.0000   0.0000   0.0000   0.0000   0.0000
     0.0000   0.0000   0.0000   0.0000   0.0000   0.0000   0.0000   0.0000
     0.0000   0.0000   0.0000   0.0000   0.0000   0.0000   0.0000   0.0000
     0.0000   0.0000   0.0000   0.0000   0.0000   0.0000   0.0000   0.0000
     0.0000   0.0000   0.0000   0.0000   0.0000   0.0000   0.0000   0.0000
     0.0000   0.0000   0.0000   0.0000   0.0000   0.0000   0.0000   0.0000
     0.0000   0.0000   0.0000   0.0000   0.0000   0.0000   0.0000   0.0000
     0.0000   0.0000   0.0000   0.0000   0.0000   0.0000

          k = 0.2828 0.1414 0.0000 (  2929 PWs)   bands (ev):

    -7.1493   1.1227   3.1555   4.0952   7.9387   8.4613  10.5044  10.6357
    13.0200  15.2719  15.6814  17.5958  18.7471  21.1582  22.5284  24.6703
    25.0989  26.4120  28.6353  29.0371  31.4932  34.5138  35.4763  35.8428
    36.0658  37.4586  38.7383  38.9072  39.2080  39.9575  40.5971  41.6073
    41.7826  43.0825  44.3919  44.7297  45.6167  46.0021  46.4962  48.1830
    48.5401  48.6773  49.9370  50.2526  51.8736  52.7006  53.2484  54.6299
    55.1532  55.6508  56.1670  57.2915  58.5254  59.4333  59.8325  61.0749
    61.2930  62.6670  65.1015  66.0303  67.1474  67.5757  68.0840  70.3147
    71.5769  72.3898  72.6095  73.5711  73.9040  74.5443

     occupation numbers 
     1.0000   1.0000   1.0000   1.0000   0.0000   0.0000   0.0000   0.0000
     0.0000   0.0000   0.0000   0.0000   0.0000   0.0000   0.0000   0.0000
     0.0000   0.0000   0.0000   0.0000   0.0000   0.0000   0.0000   0.0000
     0.0000   0.0000   0.0000   0.0000   0.0000   0.0000   0.0000   0.0000
     0.0000   0.0000   0.0000   0.0000   0.0000   0.0000   0.0000   0.0000
     0.0000   0.0000   0.0000   0.0000   0.0000   0.0000   0.0000   0.0000
     0.0000   0.0000   0.0000   0.0000   0.0000   0.0000   0.0000   0.0000
     0.0000   0.0000   0.0000   0.0000   0.0000   0.0000   0.0000   0.0000
     0.0000   0.0000   0.0000   0.0000   0.0000   0.0000

          k = 0.3536 0.2121-0.0707 (  2937 PWs)   bands (ev):

    -6.6840  -0.1098   2.5163   3.7564   7.9378   9.0518  10.4436  11.1577
    13.7801  15.6650  16.7386  18.2238  20.1727  20.9901  22.8449  23.7009
    25.2251  27.1434  27.9472  29.0191  31.3957  31.7572  33.7720  34.4747
    35.7485  36.9700  37.3813  37.6672  38.3461  39.6911  40.2709  40.9835
    41.3312  43.2029  44.1154  45.2206  45.5826  46.6384  47.3924  47.8424
    48.8362  49.7420  50.8109  52.1388  53.3067  53.7370  54.6107  55.2819
    55.8006  56.8348  58.4877  59.1562  60.0965  61.4702  62.0940  62.5737
    62.9713  64.2887  64.7628  65.4181  66.4958  67.2202  67.4450  68.8985
    69.5267  70.0702  71.2639  72.0617  72.8717  73.4073

     occupation numbers 
     1.0000   1.0000   1.0000   1.0000   0.0000   0.0000   0.0000   0.0000
     0.0000   0.0000   0.0000   0.0000   0.0000   0.0000   0.0000   0.0000
     0.0000   0.0000   0.0000   0.0000   0.0000   0.0000   0.0000   0.0000
     0.0000   0.0000   0.0000   0.0000   0.0000   0.0000   0.0000   0.0000
     0.0000   0.0000   0.0000   0.0000   0.0000   0.0000   0.0000   0.0000
     0.0000   0.0000   0.0000   0.0000   0.0000   0.0000   0.0000   0.0000
     0.0000   0.0000   0.0000   0.0000   0.0000   0.0000   0.0000   0.0000
     0.0000   0.0000   0.0000   0.0000   0.0000   0.0000   0.0000   0.0000
     0.0000   0.0000   0.0000   0.0000   0.0000   0.0000

          k =-0.2828-0.4243 0.5657 (  2945 PWs)   bands (ev):

    -6.1882  -1.1814   2.2117   3.4372   7.7888   9.2055  10.8265  11.8696
    14.6517  15.7749  17.0486  18.2636  20.0785  21.7784  23.2363  24.1363
    26.2860  27.6283  28.0992  29.3017  30.2721  30.8677  32.1021  32.6979
    33.6318  35.4702  36.5601  36.7818  37.3563  39.2927  39.9402  40.4181
    41.6937  43.0445  44.4685  46.1123  46.4581  47.0716  47.9209  48.6958
    49.6061  51.7189  52.1659  53.2805  54.1948  54.9150  55.1928  55.9235
    56.9482  57.8900  59.2072  59.5644  60.8385  61.4368  62.1423  63.0261
    63.4287  64.0726  65.0732  65.8962  66.6494  67.0511  67.5189  68.3587
    68.7176  69.4022  70.0319  71.6241  72.5307  73.1120

     occupation numbers 
     1.0000   1.0000   1.0000   1.0000   0.0000   0.0000   0.0000   0.0000
     0.0000   0.0000   0.0000   0.0000   0.0000   0.0000   0.0000   0.0000
     0.0000   0.0000   0.0000   0.0000   0.0000   0.0000   0.0000   0.0000
     0.0000   0.0000   0.0000   0.0000   0.0000   0.0000   0.0000   0.0000
     0.0000   0.0000   0.0000   0.0000   0.0000   0.0000   0.0000   0.0000
     0.0000   0.0000   0.0000   0.0000   0.0000   0.0000   0.0000   0.0000
     0.0000   0.0000   0.0000   0.0000   0.0000   0.0000   0.0000   0.0000
     0.0000   0.0000   0.0000   0.0000   0.0000   0.0000   0.0000   0.0000
     0.0000   0.0000   0.0000   0.0000   0.0000   0.0000

          k =-0.2121-0.3536 0.4950 (  2944 PWs)   bands (ev):

    -5.9470  -1.6297   2.1240   3.3124   7.7300   9.1463  10.8953  12.9129
    14.1939  16.1718  17.0076  17.8958  20.3643  21.4460  23.9932  25.3625
    26.7114  27.3192  28.1048  29.3275  29.6717  30.3494  31.8461  32.3737
    33.3952  34.2825  35.0908  36.3278  37.0376  39.5572  39.8114  40.3680
    42.3551  42.6781  44.0616  46.1992  46.7728  47.2557  48.6570  49.5454
    50.5549  51.8597  52.8990  54.0433  54.2384  55.4177  56.1045  56.7152
    57.3517  58.0757  58.3332  59.3767  59.8883  61.4276  61.6482  63.0736
    63.7578  64.0253  64.3944  65.6438  65.9793  66.7016  68.2741  68.9091
    69.9757  70.1755  71.5267  71.7880  72.0062  73.0781

     occupation numbers 
     1.0000   1.0000   1.0000   1.0000   0.0000   0.0000   0.0000   0.0000
     0.0000   0.0000   0.0000   0.0000   0.0000   0.0000   0.0000   0.0000
     0.0000   0.0000   0.0000   0.0000   0.0000   0.0000   0.0000   0.0000
     0.0000   0.0000   0.0000   0.0000   0.0000   0.0000   0.0000   0.0000
     0.0000   0.0000   0.0000   0.0000   0.0000   0.0000   0.0000   0.0000
     0.0000   0.0000   0.0000   0.0000   0.0000   0.0000   0.0000   0.0000
     0.0000   0.0000   0.0000   0.0000   0.0000   0.0000   0.0000   0.0000
     0.0000   0.0000   0.0000   0.0000   0.0000   0.0000   0.0000   0.0000
     0.0000   0.0000   0.0000   0.0000   0.0000   0.0000

          k = 0.4243 0.1414-0.0000 (  2946 PWs)   bands (ev):

    -6.5106  -0.2053   2.4250   3.0821   7.4906   8.4214  10.9032  12.4346
    14.1324  16.9048  17.2923  18.8329  20.0271  20.9560  22.0897  22.8451
    24.3879  26.4066  28.5610  29.9096  30.6687  31.6304  32.0599  34.4969
    34.9562  36.5591  36.7459  37.7639  38.9383  40.0830  40.3154  41.7447
    43.1203  43.8143  44.0062  44.8139  45.7667  46.6695  47.3195  48.1972
    48.9404  49.9678  50.6232  50.9789  51.6467  53.0889  53.7500  54.4106
    56.8434  57.8152  59.5251  60.1504  60.8617  61.5511  62.0822  63.0667
    64.8658  65.6870  65.9894  66.7348  67.0185  67.3738  67.8160  68.8178
    70.2973  70.8508  71.3843  71.8641  72.3582  73.0200

     occupation numbers 
     1.0000   1.0000   1.0000   1.0000   0.0000   0.0000   0.0000   0.0000
     0.0000   0.0000   0.0000   0.0000   0.0000   0.0000   0.0000   0.0000
     0.0000   0.0000   0.0000   0.0000   0.0000   0.0000   0.0000   0.0000
     0.0000   0.0000   0.0000   0.0000   0.0000   0.0000   0.0000   0.0000
     0.0000   0.0000   0.0000   0.0000   0.0000   0.0000   0.0000   0.0000
     0.0000   0.0000   0.0000   0.0000   0.0000   0.0000   0.0000   0.0000
     0.0000   0.0000   0.0000   0.0000   0.0000   0.0000   0.0000   0.0000
     0.0000   0.0000   0.0000   0.0000   0.0000   0.0000   0.0000   0.0000
     0.0000   0.0000   0.0000   0.0000   0.0000   0.0000

          k =-0.2121-0.4950 0.6364 (  2941 PWs)   bands (ev):

    -6.0392  -1.0446   1.8027   2.7877   7.7787   9.1500  10.5525  12.8058
    14.9476  16.8049  18.1828  18.4408  20.2397  21.0594  23.1400  24.1561
    25.3873  26.4651  27.4204  28.3739  29.8074  31.3982  32.1069  32.7695
    33.8914  35.0429  35.8319  37.3288  38.1188  39.1134  39.7465  40.6024
    42.9537  44.1734  44.9816  45.7914  46.6580  47.7597  48.1948  48.9433
    49.7869  50.6025  51.1096  52.0577  52.6035  53.3017  55.0217  56.7216
    57.1710  58.0424  59.8771  60.1966  61.5077  62.2257  62.9477  63.4430
    63.8725  64.3661  65.0961  66.3431  66.8389  67.5554  68.1321  68.8971
    69.5946  69.9214  70.6014  70.9417  71.8419  72.5236

     occupation numbers 
     1.0000   1.0000   1.0000   1.0000   0.0000   0.0000   0.0000   0.0000
     0.0000   0.0000   0.0000   0.0000   0.0000   0.0000   0.0000   0.0000
     0.0000   0.0000   0.0000   0.0000   0.0000   0.0000   0.0000   0.0000
     0.0000   0.0000   0.0000   0.0000   0.0000   0.0000   0.0000   0.0000
     0.0000   0.0000   0.0000   0.0000   0.0000   0.0000   0.0000   0.0000
     0.0000   0.0000   0.0000   0.0000   0.0000   0.0000   0.0000   0.0000
     0.0000   0.0000   0.0000   0.0000   0.0000   0.0000   0.0000   0.0000
     0.0000   0.0000   0.0000   0.0000   0.0000   0.0000   0.0000   0.0000
     0.0000   0.0000   0.0000   0.0000   0.0000   0.0000

          k =-0.1414-0.4243 0.5657 (  2950 PWs)   bands (ev):

    -5.7185  -1.5497   1.3844   2.7346   7.8971   9.8292  11.0718  12.7053
    13.9034  17.0211  18.0430  18.0903  21.0646  22.7704  23.5279  24.6184
    25.5571  26.3544  27.8167  28.6611  29.0882  29.7300  31.6952  32.6296
    32.8300  34.7525  35.1967  36.1313  37.0793  38.4159  38.7285  42.0397
    43.1699  44.6963  44.9300  46.1791  46.7318  47.4708  48.1605  49.9827
    50.6058  51.3664  52.9028  53.0898  53.8512  55.0930  56.1612  56.8421
    57.5372  58.1666  58.6822  59.2948  60.0626  60.9224  61.5760  62.3919
    62.8629  64.8802  65.3911  66.4578  67.0646  67.7817  68.2111  68.8402
    69.7147  70.5051  71.2452  71.9565  72.4806  73.0238

     occupation numbers 
     1.0000   1.0000   1.0000   1.0000   0.0000   0.0000   0.0000   0.0000
     0.0000   0.0000   0.0000   0.0000   0.0000   0.0000   0.0000   0.0000
     0.0000   0.0000   0.0000   0.0000   0.0000   0.0000   0.0000   0.0000
     0.0000   0.0000   0.0000   0.0000   0.0000   0.0000   0.0000   0.0000
     0.0000   0.0000   0.0000   0.0000   0.0000   0.0000   0.0000   0.0000
     0.0000   0.0000   0.0000   0.0000   0.0000   0.0000   0.0000   0.0000
     0.0000   0.0000   0.0000   0.0000   0.0000   0.0000   0.0000   0.0000
     0.0000   0.0000   0.0000   0.0000   0.0000   0.0000   0.0000   0.0000
     0.0000   0.0000   0.0000   0.0000   0.0000   0.0000

          k =-0.0707-0.3536 0.4950 (  2949 PWs)   bands (ev):

    -5.8099  -1.4030   1.2639   2.9569   8.1437   9.7629  11.1336  12.8161
    13.4725  15.5069  18.0901  19.3239  21.3422  21.7539  23.2116  25.1378
    26.0169  26.8531  27.6347  28.9415  29.1180  29.9721  31.7296  32.4534
    32.7952  33.5093  35.6641  36.9022  37.4726  38.2114  39.1497  41.7557
    43.5362  44.0930  44.8310  45.2524  46.6252  47.4971  48.8219  49.6927
    50.4282  51.3388  52.2137  54.0638  54.4149  55.5068  56.3603  56.6171
    57.3955  58.4314  58.8677  59.0739  59.9828  60.5677  61.5606  61.8046
    62.4844  63.8981  65.1387  65.6456  66.1216  67.5416  68.4098  69.4223
    70.2845  70.9611  71.4727  72.3092  73.2668  73.3669

     occupation numbers 
     1.0000   1.0000   1.0000   1.0000   0.0000   0.0000   0.0000   0.0000
     0.0000   0.0000   0.0000   0.0000   0.0000   0.0000   0.0000   0.0000
     0.0000   0.0000   0.0000   0.0000   0.0000   0.0000   0.0000   0.0000
     0.0000   0.0000   0.0000   0.0000   0.0000   0.0000   0.0000   0.0000
     0.0000   0.0000   0.0000   0.0000   0.0000   0.0000   0.0000   0.0000
     0.0000   0.0000   0.0000   0.0000   0.0000   0.0000   0.0000   0.0000
     0.0000   0.0000   0.0000   0.0000   0.0000   0.0000   0.0000   0.0000
     0.0000   0.0000   0.0000   0.0000   0.0000   0.0000   0.0000   0.0000
     0.0000   0.0000   0.0000   0.0000   0.0000   0.0000

          k = 0.0000-0.2828 0.4243 (  2932 PWs)   bands (ev):

    -6.2251  -0.7770   1.5976   3.3639   8.3895   9.5017  10.1595  12.1431
    13.9021  15.7902  17.9946  18.7263  19.4809  22.4965  22.8002  24.3089
    25.9281  26.7182  27.8921  29.2889  29.8348  30.9901  31.7600  32.7012
    33.7722  36.4290  36.5156  37.3035  37.7166  38.7214  40.0316  41.8733
    42.0918  43.5090  44.4614  44.6819  45.5910  47.4758  47.9767  49.0988
    50.6242  50.8957  51.9817  52.2966  52.9662  53.6996  56.2053  57.1540
    57.5264  58.1323  58.6570  59.4539  59.6139  60.6332  61.8337  62.6874
    63.5435  63.9710  64.8545  66.0074  66.4666  67.7766  68.2908  68.7187
    69.5252  69.6882  70.7841  71.4332  73.1445  73.8385

     occupation numbers 
     1.0000   1.0000   1.0000   1.0000   0.0000   0.0000   0.0000   0.0000
     0.0000   0.0000   0.0000   0.0000   0.0000   0.0000   0.0000   0.0000
     0.0000   0.0000   0.0000   0.0000   0.0000   0.0000   0.0000   0.0000
     0.0000   0.0000   0.0000   0.0000   0.0000   0.0000   0.0000   0.0000
     0.0000   0.0000   0.0000   0.0000   0.0000   0.0000   0.0000   0.0000
     0.0000   0.0000   0.0000   0.0000   0.0000   0.0000   0.0000   0.0000
     0.0000   0.0000   0.0000   0.0000   0.0000   0.0000   0.0000   0.0000
     0.0000   0.0000   0.0000   0.0000   0.0000   0.0000   0.0000   0.0000
     0.0000   0.0000   0.0000   0.0000   0.0000   0.0000

          k =-0.1414-0.5657 0.7071 (  2935 PWs)   bands (ev):

    -5.7935  -1.3390   2.0019   2.3270   7.1663   7.7218  12.3247  14.1538
    15.2946  17.5111  18.4295  19.4921  20.4236  20.9727  22.3551  23.5108
    24.7858  25.0062  26.8420  27.8146  30.2982  30.5421  31.2121  32.4982
    34.1007  35.4137  36.7281  37.5762  38.7260  39.5713  40.1017  42.1460
    42.6726  43.5078  44.3710  45.3878  46.3775  46.6115  47.2476  48.6704
    49.6296  50.2793  51.8529  52.7852  53.1394  53.9560  56.3214  56.6981
    57.6219  58.2716  59.8591  60.8515  61.3681  62.1196  62.4066  63.4749
    64.3200  64.8292  65.4479  66.0380  66.5319  67.8283  68.1140  69.0098
    69.9554  71.0601  71.8665  72.3078  72.5181  73.1084

     occupation numbers 
     1.0000   1.0000   1.0000   1.0000   0.0000   0.0000   0.0000   0.0000
     0.0000   0.0000   0.0000   0.0000   0.0000   0.0000   0.0000   0.0000
     0.0000   0.0000   0.0000   0.0000   0.0000   0.0000   0.0000   0.0000
     0.0000   0.0000   0.0000   0.0000   0.0000   0.0000   0.0000   0.0000
     0.0000   0.0000   0.0000   0.0000   0.0000   0.0000   0.0000   0.0000
     0.0000   0.0000   0.0000   0.0000   0.0000   0.0000   0.0000   0.0000
     0.0000   0.0000   0.0000   0.0000   0.0000   0.0000   0.0000   0.0000
     0.0000   0.0000   0.0000   0.0000   0.0000   0.0000   0.0000   0.0000
     0.0000   0.0000   0.0000   0.0000   0.0000   0.0000

          k =-0.0707-0.4950 0.6364 (  2932 PWs)   bands (ev):

    -5.5036  -1.6789   1.3717   2.2406   7.4860   8.8660  11.9490  13.4836
    14.9874  17.2968  18.1952  19.7231  21.1587  22.0854  23.3995  24.1094
    24.3407  26.0327  26.7296  27.8259  28.9915  29.6042  30.8315  31.9518
    33.2665  35.3375  36.0032  36.9389  38.1322  38.8239  39.4910  41.4538
    42.8427  43.6579  44.4347  45.5254  47.0045  47.6058  48.7870  50.2771
    51.1725  51.8457  52.5459  53.0977  53.8386  54.5657  55.6299  56.3706
    57.1098  57.6037  58.4311  59.9637  60.7508  61.3526  62.4148  63.1365
    64.6508  65.1071  65.8281  66.3793  66.8302  67.3032  68.2836  69.0133
    69.7015  70.2614  71.5166  72.0478  72.3390  72.8532

     occupation numbers 
     1.0000   1.0000   1.0000   1.0000   0.0000   0.0000   0.0000   0.0000
     0.0000   0.0000   0.0000   0.0000   0.0000   0.0000   0.0000   0.0000
     0.0000   0.0000   0.0000   0.0000   0.0000   0.0000   0.0000   0.0000
     0.0000   0.0000   0.0000   0.0000   0.0000   0.0000   0.0000   0.0000
     0.0000   0.0000   0.0000   0.0000   0.0000   0.0000   0.0000   0.0000
     0.0000   0.0000   0.0000   0.0000   0.0000   0.0000   0.0000   0.0000
     0.0000   0.0000   0.0000   0.0000   0.0000   0.0000   0.0000   0.0000
     0.0000   0.0000   0.0000   0.0000   0.0000   0.0000   0.0000   0.0000
     0.0000   0.0000   0.0000   0.0000   0.0000   0.0000

          k =-0.0000-0.4243 0.5657 (  2950 PWs)   bands (ev):

    -5.5169  -1.6325   0.9840   2.4983   7.7739  10.4524  11.4889  12.1552
    14.2323  15.9049  19.1221  20.1618  21.1166  21.9837  23.5261  24.5449
    25.6193  26.0196  27.1429  28.3171  29.0961  29.7183  31.6100  32.0438
    32.1710  32.9816  35.6105  37.0609  37.3969  38.2157  39.9650  41.0282
    43.5032  44.3838  44.8881  45.0780  47.1535  48.1921  49.3974  50.5875
    50.9570  52.6337  53.0906  53.6197  53.8507  54.5123  55.1895  56.1416
    56.7032  57.5241  59.1331  59.6410  60.5920  61.2641  62.4456  62.5910
    63.2212  63.6332  64.9301  65.2877  65.8806  67.1138  68.6538  70.2912
    70.9943  71.4642  71.7139  72.2459  72.6577  73.3956

     occupation numbers 
     1.0000   1.0000   1.0000   1.0000   0.0000   0.0000   0.0000   0.0000
     0.0000   0.0000   0.0000   0.0000   0.0000   0.0000   0.0000   0.0000
     0.0000   0.0000   0.0000   0.0000   0.0000   0.0000   0.0000   0.0000
     0.0000   0.0000   0.0000   0.0000   0.0000   0.0000   0.0000   0.0000
     0.0000   0.0000   0.0000   0.0000   0.0000   0.0000   0.0000   0.0000
     0.0000   0.0000   0.0000   0.0000   0.0000   0.0000   0.0000   0.0000
     0.0000   0.0000   0.0000   0.0000   0.0000   0.0000   0.0000   0.0000
     0.0000   0.0000   0.0000   0.0000   0.0000   0.0000   0.0000   0.0000
     0.0000   0.0000   0.0000   0.0000   0.0000   0.0000

          k =-0.7071 0.1414 0.0000 (  2938 PWs)   bands (ev):

    -5.4145  -1.8604   1.9217   1.9990   7.1349   7.3545  13.8745  13.9255
    15.9013  17.5559  18.4079  18.8959  21.1328  22.1746  23.3380  23.8172
    24.3495  24.6681  26.9748  27.4836  27.5792  28.0789  30.9177  32.5238
    35.0823  36.1847  37.1174  38.1359  38.7016  39.3159  39.7655  41.4109
    42.1772  42.4325  43.8818  44.4153  46.1643  46.3417  48.8934  49.3834
    50.7394  51.4079  53.0834  53.6252  53.9885  55.9352  57.1496  57.1584
    57.6823  57.9879  58.2876  60.1311  60.7245  61.2083  61.9637  63.6834
    63.9005  64.0040  65.4516  66.0026  66.4892  67.9528  68.3279  69.6588
    69.9952  70.3384  70.9330  71.9038  72.3400  73.7141

     occupation numbers 
     1.0000   1.0000   1.0000   1.0000   0.0000   0.0000   0.0000   0.0000
     0.0000   0.0000   0.0000   0.0000   0.0000   0.0000   0.0000   0.0000
     0.0000   0.0000   0.0000   0.0000   0.0000   0.0000   0.0000   0.0000
     0.0000   0.0000   0.0000   0.0000   0.0000   0.0000   0.0000   0.0000
     0.0000   0.0000   0.0000   0.0000   0.0000   0.0000   0.0000   0.0000
     0.0000   0.0000   0.0000   0.0000   0.0000   0.0000   0.0000   0.0000
     0.0000   0.0000   0.0000   0.0000   0.0000   0.0000   0.0000   0.0000
     0.0000   0.0000   0.0000   0.0000   0.0000   0.0000   0.0000   0.0000
     0.0000   0.0000   0.0000   0.0000   0.0000   0.0000

          k =-0.1414-0.4243 0.7071 (  2945 PWs)   bands (ev):

    -5.6565  -1.4576   1.3067   2.2760   8.8901   9.2823  10.1565  13.2836
    14.4737  16.4427  18.9549  19.5696  20.5023  21.7500  22.7666  25.5418
    25.9864  26.3239  27.0124  27.4416  28.3030  30.6193  32.0661  32.5992
    33.8466  34.0873  34.7454  35.4270  36.1543  39.9511  40.6505  41.5506
    42.0294  43.9814  46.3341  46.8232  47.4657  48.0252  48.6550  49.5553
    49.9087  50.0866  50.3525  53.5780  54.8641  55.4173  56.6367  56.8112
    57.1236  57.7864  58.1832  58.7980  60.1305  62.3019  62.9233  63.2041
    63.4230  63.8205  64.9201  66.2640  66.4482  67.6998  68.2632  68.6127
    70.0567  70.4996  70.7860  71.5745  72.9779  74.2712

     occupation numbers 
     1.0000   1.0000   1.0000   1.0000   0.0000   0.0000   0.0000   0.0000
     0.0000   0.0000   0.0000   0.0000   0.0000   0.0000   0.0000   0.0000
     0.0000   0.0000   0.0000   0.0000   0.0000   0.0000   0.0000   0.0000
     0.0000   0.0000   0.0000   0.0000   0.0000   0.0000   0.0000   0.0000
     0.0000   0.0000   0.0000   0.0000   0.0000   0.0000   0.0000   0.0000
     0.0000   0.0000   0.0000   0.0000   0.0000   0.0000   0.0000   0.0000
     0.0000   0.0000   0.0000   0.0000   0.0000   0.0000   0.0000   0.0000
     0.0000   0.0000   0.0000   0.0000   0.0000   0.0000   0.0000   0.0000
     0.0000   0.0000   0.0000   0.0000   0.0000   0.0000

          k =-0.0707-0.3536 0.6364 (  2948 PWs)   bands (ev):

    -5.4826  -1.6431   1.1554   2.0456   9.0707   9.6844  10.7643  11.7966
    14.8584  17.3617  18.0881  19.5530  21.3288  22.6489  23.3818  24.1639
    25.4005  26.2964  26.9378  28.2670  29.0636  30.8118  31.4158  31.8521
    32.4704  33.6764  34.4874  34.7575  37.4791  38.3346  41.0657  41.7343
    42.9096  44.1071  45.7776  46.5603  47.1304  48.7776  49.1247  49.6088
    50.3555  51.7853  52.6057  53.6220  53.8156  53.9212  55.3696  56.4469
    57.6519  58.1064  59.5986  60.0160  60.5781  61.0743  61.3367  62.4626
    63.2188  64.2817  64.6940  65.8113  66.6945  67.4218  68.2602  68.9506
    69.3221  70.9611  72.2422  72.9905  73.2653  73.7267

     occupation numbers 
     1.0000   1.0000   1.0000   1.0000   0.0000   0.0000   0.0000   0.0000
     0.0000   0.0000   0.0000   0.0000   0.0000   0.0000   0.0000   0.0000
     0.0000   0.0000   0.0000   0.0000   0.0000   0.0000   0.0000   0.0000
     0.0000   0.0000   0.0000   0.0000   0.0000   0.0000   0.0000   0.0000
     0.0000   0.0000   0.0000   0.0000   0.0000   0.0000   0.0000   0.0000
     0.0000   0.0000   0.0000   0.0000   0.0000   0.0000   0.0000   0.0000
     0.0000   0.0000   0.0000   0.0000   0.0000   0.0000   0.0000   0.0000
     0.0000   0.0000   0.0000   0.0000   0.0000   0.0000   0.0000   0.0000
     0.0000   0.0000   0.0000   0.0000   0.0000   0.0000

          k =-0.7071 0.2828 0.0000 (  2946 PWs)   bands (ev):

    -5.3882  -1.7368   1.4250   1.6281   8.9062   9.0762  11.4575  11.7122
    15.9887  17.4137  18.3105  19.1085  22.1132  23.0879  23.1963  23.6841
    24.1917  25.0946  27.8731  28.4202  29.5790  30.0488  30.8685  30.9894
    33.2042  33.7839  34.1467  34.9978  39.0487  39.6682  40.4814  41.4611
    42.2932  42.7044  45.5674  46.1379  48.0562  49.0835  49.4501  49.4681
    51.7746  52.0302  52.9236  52.9338  53.5774  54.1721  54.3718  55.2174
    56.9287  58.8549  58.8769  60.4944  61.1492  61.3691  61.8886  62.5740
    63.5364  65.5724  65.7653  66.3924  66.7907  66.8676  67.7160  68.8032
    68.8504  69.8883  71.1055  71.1298  73.6505  74.2236

     occupation numbers 
     1.0000   1.0000   1.0000   1.0000   0.0000   0.0000   0.0000   0.0000
     0.0000   0.0000   0.0000   0.0000   0.0000   0.0000   0.0000   0.0000
     0.0000   0.0000   0.0000   0.0000   0.0000   0.0000   0.0000   0.0000
     0.0000   0.0000   0.0000   0.0000   0.0000   0.0000   0.0000   0.0000
     0.0000   0.0000   0.0000   0.0000   0.0000   0.0000   0.0000   0.0000
     0.0000   0.0000   0.0000   0.0000   0.0000   0.0000   0.0000   0.0000
     0.0000   0.0000   0.0000   0.0000   0.0000   0.0000   0.0000   0.0000
     0.0000   0.0000   0.0000   0.0000   0.0000   0.0000   0.0000   0.0000
     0.0000   0.0000   0.0000   0.0000   0.0000   0.0000

     highest occupied, lowest unoccupied level (ev):     5.0027    5.8020

     Writing output data file run_output/GaAs.save/

     init_run     :      0.02s CPU      0.04s WALL (       1 calls)
     electrons    :     17.02s CPU     17.30s WALL (       1 calls)

     Called by init_run:
     wfcinit      :      0.00s CPU      0.01s WALL (       1 calls)
     wfcinit:atom :      0.00s CPU      0.00s WALL (      47 calls)
     wfcinit:wfcr :      0.89s CPU      0.91s WALL (      47 calls)
     potinit      :      0.00s CPU      0.01s WALL (       1 calls)
     hinit0       :      0.01s CPU      0.01s WALL (       1 calls)

     Called by electrons:
     c_bands      :     17.02s CPU     17.30s WALL (       1 calls)
     v_of_rho     :      0.00s CPU      0.00s WALL (       1 calls)
     v_h          :      0.00s CPU      0.00s WALL (       1 calls)
     v_xc         :      0.00s CPU      0.00s WALL (       1 calls)

     Called by c_bands:
     init_us_2    :      0.00s CPU      0.00s WALL (      47 calls)
     cegterg      :     16.09s CPU     16.34s WALL (      49 calls)

     Called by sum_band:

     Called by *egterg:
     cdiaghg      :      8.12s CPU      8.12s WALL (     864 calls)
     cegterg:over :      1.33s CPU      1.43s WALL (     817 calls)
     cegterg:upda :      0.61s CPU      0.61s WALL (     817 calls)
     cegterg:last :      1.18s CPU      1.18s WALL (     380 calls)
     h_psi        :      5.27s CPU      5.42s WALL (     913 calls)
     g_psi        :      0.01s CPU      0.02s WALL (     817 calls)

     Called by h_psi:
     h_psi:calbec :      0.11s CPU      0.13s WALL (     913 calls)
     vloc_psi     :      5.09s CPU      5.21s WALL (     913 calls)
     add_vuspsi   :      0.06s CPU      0.07s WALL (     913 calls)

     General routines
     calbec       :      0.11s CPU      0.13s WALL (     913 calls)
     fft          :      0.00s CPU      0.00s WALL (       4 calls)
     fftw         :      4.88s CPU      5.02s WALL (   60908 calls)
     davcio       :      0.00s CPU      0.02s WALL (      94 calls)

     Parallel routines
     fft_scatt_xy :      0.23s CPU      0.26s WALL (   60912 calls)
     fft_scatt_yz :      2.30s CPU      2.30s WALL (   60912 calls)

     PWSCF        :     18.16s CPU     21.36s WALL


   This run was terminated on:  15:49:30  29Apr2021            

=------------------------------------------------------------------------------=
   JOB DONE.
=------------------------------------------------------------------------------=
