
     Program PWSCF v.6.7MaX starts on 11May2021 at  9:45: 1 

     This program is part of the open-source Quantum ESPRESSO suite
     for quantum simulation of materials; please cite
         "P. Giannozzi et al., J. Phys.:Condens. Matter 21 395502 (2009);
         "P. Giannozzi et al., J. Phys.:Condens. Matter 29 465901 (2017);
          URL http://www.quantum-espresso.org", 
     in publications or presentations arising from this work. More details at
     http://www.quantum-espresso.org/quote

     Parallel version (MPI), running on    84 processors

     MPI processes distributed on     3 nodes
     R & G space division:  proc/nbgrp/npool/nimage =      84
     Waiting for input...
     Reading input from standard input

     Current dimensions of program PWSCF are:
     Max number of different atomic species (ntypx) = 10
     Max number of k-points (npk) =  40000
     Max angular momentum in pseudopotentials (lmaxx) =  3

     Atomic positions and unit cell read from directory:
     run_output/MoS2.save/
     Atomic positions from file used, from input discarded


     Subspace diagonalization in iterative solution of the eigenvalue problem:
     a serial algorithm will be used


     Parallelization info
     --------------------
     sticks:   dense  smooth     PW     G-vecs:    dense   smooth      PW
     Min           6       6      1                  652      652      79
     Max           7       7      2                  693      693     122
     Sum         583     583    163                56613    56613    9123



     bravais-lattice index     =            4
     lattice parameter (alat)  =       5.8772  a.u.
     unit-cell volume          =     897.4163 (a.u.)^3
     number of atoms/cell      =            3
     number of atomic types    =            2
     number of electrons       =        26.00
     number of Kohn-Sham states=           50
     kinetic-energy cutoff     =      60.0000  Ry
     charge density cutoff     =     240.0000  Ry
     Exchange-correlation= SLA-PZ-NOGX-NOGC
                           (   1   1   0   0   0   0   0)

     celldm(1)=   5.877208  celldm(2)=   0.000000  celldm(3)=   5.104465
     celldm(4)=   0.000000  celldm(5)=   0.000000  celldm(6)=   0.000000

     crystal axes: (cart. coord. in units of alat)
               a(1) = (   1.000000   0.000000   0.000000 )  
               a(2) = (  -0.500000   0.866025   0.000000 )  
               a(3) = (   0.000000   0.000000   5.104465 )  

     reciprocal axes: (cart. coord. in units 2 pi/alat)
               b(1) = (  1.000000  0.577350 -0.000000 )  
               b(2) = (  0.000000  1.154701  0.000000 )  
               b(3) = (  0.000000 -0.000000  0.195907 )  


     PseudoPot. # 1 for Mo read from file:
     PPs/Mo_SR_withPS_PZ.UPF
     MD5 check sum: 19bf02b7f08077cf8574869525df176e
     Pseudo is Norm-conserving + core correction, Zval = 14.0
     Generated using "atomic" code by A. Dal Corso  (Quantum ESPRESSO distribution)
     Using radial grid of 1229 points,  5 beta functions with: 
                l(1) =   0
                l(2) =   0
                l(3) =   1
                l(4) =   2
                l(5) =   2

     PseudoPot. # 2 for S  read from file:
     PPs/S.pz-hgh.UPF
     MD5 check sum: fb24c143a2a3ea3aba309d3cb9e9e6ec
     Pseudo is Norm-conserving, Zval =  6.0
     Generated in analytical, separable form
     Using radial grid of 1151 points,  3 beta functions with: 
                l(1) =   0
                l(2) =   0
                l(3) =   1

     atomic species   valence    mass     pseudopotential
        Mo            14.00    95.94000     Mo( 1.00)
        S              6.00    32.06500     S ( 1.00)

     Starting magnetic structure 
     atomic species   magnetization
        Mo          -0.100
        S            0.100

     12 Sym. Ops. (no inversion) found


                                    s                        frac. trans.

      isym =  1     identity                                     

 cryst.   s( 1) = (     1          0          0      )
                  (     0          1          0      )
                  (     0          0          1      )

 cart.    s( 1) = (  1.0000000  0.0000000  0.0000000 )
                  (  0.0000000  1.0000000  0.0000000 )
                  (  0.0000000  0.0000000  1.0000000 )


      isym =  2     180 deg rotation - cart. axis [0,1,0]        

 cryst.   s( 2) = (    -1          0          0      )
                  (     1          1          0      )
                  (     0          0         -1      )

 cart.    s( 2) = ( -1.0000000  0.0000000  0.0000000 )
                  (  0.0000000  1.0000000  0.0000000 )
                  (  0.0000000  0.0000000 -1.0000000 )


      isym =  3     120 deg rotation - cryst. axis [0,0,1]       

 cryst.   s( 3) = (     0          1          0      )
                  (    -1         -1          0      )
                  (     0          0          1      )

 cart.    s( 3) = ( -0.5000000 -0.8660254  0.0000000 )
                  (  0.8660254 -0.5000000  0.0000000 )
                  (  0.0000000  0.0000000  1.0000000 )


      isym =  4     120 deg rotation - cryst. axis [0,0,-1]      

 cryst.   s( 4) = (    -1         -1          0      )
                  (     1          0          0      )
                  (     0          0          1      )

 cart.    s( 4) = ( -0.5000000  0.8660254  0.0000000 )
                  ( -0.8660254 -0.5000000  0.0000000 )
                  (  0.0000000  0.0000000  1.0000000 )


      isym =  5     180 deg rotation - cryst. axis [1,-1,0]      

 cryst.   s( 5) = (     0         -1          0      )
                  (    -1          0          0      )
                  (     0          0         -1      )

 cart.    s( 5) = (  0.5000000 -0.8660254  0.0000000 )
                  ( -0.8660254 -0.5000000  0.0000000 )
                  (  0.0000000  0.0000000 -1.0000000 )


      isym =  6     180 deg rotation - cryst. axis [2,1,0]       

 cryst.   s( 6) = (     1          1          0      )
                  (     0         -1          0      )
                  (     0          0         -1      )

 cart.    s( 6) = (  0.5000000  0.8660254  0.0000000 )
                  (  0.8660254 -0.5000000  0.0000000 )
                  (  0.0000000  0.0000000 -1.0000000 )


      isym =  7     inv. 180 deg rotation - cart. axis [0,0,1]   

 cryst.   s( 7) = (     1          0          0      )
                  (     0          1          0      )
                  (     0          0         -1      )

 cart.    s( 7) = (  1.0000000  0.0000000  0.0000000 )
                  (  0.0000000  1.0000000  0.0000000 )
                  (  0.0000000  0.0000000 -1.0000000 )


      isym =  8     inv. 180 deg rotation - cart. axis [1,0,0]   

 cryst.   s( 8) = (    -1          0          0      )
                  (     1          1          0      )
                  (     0          0          1      )

 cart.    s( 8) = ( -1.0000000  0.0000000  0.0000000 )
                  (  0.0000000  1.0000000  0.0000000 )
                  (  0.0000000  0.0000000  1.0000000 )


      isym =  9     inv.  60 deg rotation - cryst. axis [0,0,1]  

 cryst.   s( 9) = (    -1         -1          0      )
                  (     1          0          0      )
                  (     0          0         -1      )

 cart.    s( 9) = ( -0.5000000  0.8660254  0.0000000 )
                  ( -0.8660254 -0.5000000  0.0000000 )
                  (  0.0000000  0.0000000 -1.0000000 )


      isym = 10     inv.  60 deg rotation - cryst. axis [0,0,-1] 

 cryst.   s(10) = (     0          1          0      )
                  (    -1         -1          0      )
                  (     0          0         -1      )

 cart.    s(10) = ( -0.5000000 -0.8660254  0.0000000 )
                  (  0.8660254 -0.5000000  0.0000000 )
                  (  0.0000000  0.0000000 -1.0000000 )


      isym = 11     inv. 180 deg rotation - cryst. axis [0,1,0]  

 cryst.   s(11) = (     1          1          0      )
                  (     0         -1          0      )
                  (     0          0          1      )

 cart.    s(11) = (  0.5000000  0.8660254  0.0000000 )
                  (  0.8660254 -0.5000000  0.0000000 )
                  (  0.0000000  0.0000000  1.0000000 )


      isym = 12     inv. 180 deg rotation - cryst. axis [1,1,0]  

 cryst.   s(12) = (     0         -1          0      )
                  (    -1          0          0      )
                  (     0          0          1      )

 cart.    s(12) = (  0.5000000 -0.8660254  0.0000000 )
                  ( -0.8660254 -0.5000000  0.0000000 )
                  (  0.0000000  0.0000000  1.0000000 )


     point group D_3h (-62m)
     there are  6 classes
     the character table:

       E     2C3   3C2   s_h   2S3   3s_v 
A'_1   1.00  1.00  1.00  1.00  1.00  1.00
A'_2   1.00  1.00 -1.00  1.00  1.00 -1.00
E'     2.00 -1.00  0.00  2.00 -1.00  0.00
A''1   1.00  1.00  1.00 -1.00 -1.00 -1.00
A''2   1.00  1.00 -1.00 -1.00 -1.00  1.00
E''    2.00 -1.00  0.00 -2.00  1.00  0.00

     the symmetry operations in each class and the name of the first element:

     E        1
          identity                                               
     2C3      3    4
          120 deg rotation - cryst. axis [0,0,1]                 
     3C2      2    6    5
          180 deg rotation - cart. axis [0,1,0]                  
     s_h      7
          inv. 180 deg rotation - cart. axis [0,0,1]             
     2S3      9   10
          inv.  60 deg rotation - cryst. axis [0,0,1]            
     3s_v     8   11   12
          inv. 180 deg rotation - cart. axis [1,0,0]             

   Cartesian axes

     site n.     atom                  positions (alat units)
         1           Mo  tau(   1) = (  -0.0000000   0.5773503   0.0000000  )
         2           S   tau(   2) = (   0.5000000   0.2886751   0.4991315  )
         3           S   tau(   3) = (   0.5000000   0.2886751  -0.4991315  )

   Crystallographic axes

     site n.     atom                  positions (cryst. coord.)
         1           Mo  tau(   1) = (  0.3333333  0.6666667  0.0000000  )
         2           S   tau(   2) = (  0.6666667  0.3333333  0.0977833  )
         3           S   tau(   3) = (  0.6666667  0.3333333 -0.0977833  )

     number of k points=   331  Gaussian smearing, width (Ry)=  0.0017
                       cart. coord. in units 2pi/alat
        k(    1) = (   0.0000000   0.0000000   0.0000000), wk =   0.0002778
        k(    2) = (   0.0000000   0.0192450   0.0000000), wk =   0.0016667
        k(    3) = (   0.0000000   0.0384900   0.0000000), wk =   0.0016667
        k(    4) = (   0.0000000   0.0577350   0.0000000), wk =   0.0016667
        k(    5) = (   0.0000000   0.0769800   0.0000000), wk =   0.0016667
        k(    6) = (   0.0000000   0.0962250   0.0000000), wk =   0.0016667
        k(    7) = (   0.0000000   0.1154701   0.0000000), wk =   0.0016667
        k(    8) = (   0.0000000   0.1347151   0.0000000), wk =   0.0016667
        k(    9) = (   0.0000000   0.1539601   0.0000000), wk =   0.0016667
        k(   10) = (   0.0000000   0.1732051   0.0000000), wk =   0.0016667
        k(   11) = (   0.0000000   0.1924501   0.0000000), wk =   0.0016667
        k(   12) = (   0.0000000   0.2116951   0.0000000), wk =   0.0016667
        k(   13) = (   0.0000000   0.2309401   0.0000000), wk =   0.0016667
        k(   14) = (   0.0000000   0.2501851   0.0000000), wk =   0.0016667
        k(   15) = (   0.0000000   0.2694301   0.0000000), wk =   0.0016667
        k(   16) = (   0.0000000   0.2886751   0.0000000), wk =   0.0016667
        k(   17) = (   0.0000000   0.3079201   0.0000000), wk =   0.0016667
        k(   18) = (   0.0000000   0.3271652   0.0000000), wk =   0.0016667
        k(   19) = (   0.0000000   0.3464102   0.0000000), wk =   0.0016667
        k(   20) = (   0.0000000   0.3656552   0.0000000), wk =   0.0016667
        k(   21) = (   0.0000000   0.3849002   0.0000000), wk =   0.0016667
        k(   22) = (   0.0000000   0.4041452   0.0000000), wk =   0.0016667
        k(   23) = (   0.0000000   0.4233902   0.0000000), wk =   0.0016667
        k(   24) = (   0.0000000   0.4426352   0.0000000), wk =   0.0016667
        k(   25) = (   0.0000000   0.4618802   0.0000000), wk =   0.0016667
        k(   26) = (   0.0000000   0.4811252   0.0000000), wk =   0.0016667
        k(   27) = (   0.0000000   0.5003702   0.0000000), wk =   0.0016667
        k(   28) = (   0.0000000   0.5196152   0.0000000), wk =   0.0016667
        k(   29) = (   0.0000000   0.5388603   0.0000000), wk =   0.0016667
        k(   30) = (   0.0000000   0.5581053   0.0000000), wk =   0.0016667
        k(   31) = (   0.0000000  -0.5773503   0.0000000), wk =   0.0008333
        k(   32) = (   0.0166667   0.0288675   0.0000000), wk =   0.0016667
        k(   33) = (   0.0166667   0.0481125   0.0000000), wk =   0.0033333
        k(   34) = (   0.0166667   0.0673575   0.0000000), wk =   0.0033333
        k(   35) = (   0.0166667   0.0866025   0.0000000), wk =   0.0033333
        k(   36) = (   0.0166667   0.1058475   0.0000000), wk =   0.0033333
        k(   37) = (   0.0166667   0.1250926   0.0000000), wk =   0.0033333
        k(   38) = (   0.0166667   0.1443376   0.0000000), wk =   0.0033333
        k(   39) = (   0.0166667   0.1635826   0.0000000), wk =   0.0033333
        k(   40) = (   0.0166667   0.1828276   0.0000000), wk =   0.0033333
        k(   41) = (   0.0166667   0.2020726   0.0000000), wk =   0.0033333
        k(   42) = (   0.0166667   0.2213176   0.0000000), wk =   0.0033333
        k(   43) = (   0.0166667   0.2405626   0.0000000), wk =   0.0033333
        k(   44) = (   0.0166667   0.2598076   0.0000000), wk =   0.0033333
        k(   45) = (   0.0166667   0.2790526   0.0000000), wk =   0.0033333
        k(   46) = (   0.0166667   0.2982976   0.0000000), wk =   0.0033333
        k(   47) = (   0.0166667   0.3175426   0.0000000), wk =   0.0033333
        k(   48) = (   0.0166667   0.3367877   0.0000000), wk =   0.0033333
        k(   49) = (   0.0166667   0.3560327   0.0000000), wk =   0.0033333
        k(   50) = (   0.0166667   0.3752777   0.0000000), wk =   0.0033333
        k(   51) = (   0.0166667   0.3945227   0.0000000), wk =   0.0033333
        k(   52) = (   0.0166667   0.4137677   0.0000000), wk =   0.0033333
        k(   53) = (   0.0166667   0.4330127   0.0000000), wk =   0.0033333
        k(   54) = (   0.0166667   0.4522577   0.0000000), wk =   0.0033333
        k(   55) = (   0.0166667   0.4715027   0.0000000), wk =   0.0033333
        k(   56) = (   0.0166667   0.4907477   0.0000000), wk =   0.0033333
        k(   57) = (   0.0166667   0.5099927   0.0000000), wk =   0.0033333
        k(   58) = (   0.0166667   0.5292377   0.0000000), wk =   0.0033333
        k(   59) = (   0.0166667   0.5484828   0.0000000), wk =   0.0033333
        k(   60) = (   0.0166667   0.5677278   0.0000000), wk =   0.0033333
        k(   61) = (   0.0333333   0.0577350   0.0000000), wk =   0.0016667
        k(   62) = (   0.0333333   0.0769800   0.0000000), wk =   0.0033333
        k(   63) = (   0.0333333   0.0962250   0.0000000), wk =   0.0033333
        k(   64) = (   0.0333333   0.1154701   0.0000000), wk =   0.0033333
        k(   65) = (   0.0333333   0.1347151   0.0000000), wk =   0.0033333
        k(   66) = (   0.0333333   0.1539601   0.0000000), wk =   0.0033333
        k(   67) = (   0.0333333   0.1732051   0.0000000), wk =   0.0033333
        k(   68) = (   0.0333333   0.1924501   0.0000000), wk =   0.0033333
        k(   69) = (   0.0333333   0.2116951   0.0000000), wk =   0.0033333
        k(   70) = (   0.0333333   0.2309401   0.0000000), wk =   0.0033333
        k(   71) = (   0.0333333   0.2501851   0.0000000), wk =   0.0033333
        k(   72) = (   0.0333333   0.2694301   0.0000000), wk =   0.0033333
        k(   73) = (   0.0333333   0.2886751   0.0000000), wk =   0.0033333
        k(   74) = (   0.0333333   0.3079201   0.0000000), wk =   0.0033333
        k(   75) = (   0.0333333   0.3271652   0.0000000), wk =   0.0033333
        k(   76) = (   0.0333333   0.3464102   0.0000000), wk =   0.0033333
        k(   77) = (   0.0333333   0.3656552   0.0000000), wk =   0.0033333
        k(   78) = (   0.0333333   0.3849002   0.0000000), wk =   0.0033333
        k(   79) = (   0.0333333   0.4041452   0.0000000), wk =   0.0033333
        k(   80) = (   0.0333333   0.4233902   0.0000000), wk =   0.0033333
        k(   81) = (   0.0333333   0.4426352   0.0000000), wk =   0.0033333
        k(   82) = (   0.0333333   0.4618802   0.0000000), wk =   0.0033333
        k(   83) = (   0.0333333   0.4811252   0.0000000), wk =   0.0033333
        k(   84) = (   0.0333333   0.5003702   0.0000000), wk =   0.0033333
        k(   85) = (   0.0333333   0.5196152   0.0000000), wk =   0.0033333
        k(   86) = (   0.0333333   0.5388603   0.0000000), wk =   0.0033333
        k(   87) = (   0.0333333   0.5581053   0.0000000), wk =   0.0033333
        k(   88) = (   0.0333333   0.5773503   0.0000000), wk =   0.0016667
        k(   89) = (   0.0500000   0.0866025   0.0000000), wk =   0.0016667
        k(   90) = (   0.0500000   0.1058475   0.0000000), wk =   0.0033333
        k(   91) = (   0.0500000   0.1250926   0.0000000), wk =   0.0033333
        k(   92) = (   0.0500000   0.1443376   0.0000000), wk =   0.0033333
        k(   93) = (   0.0500000   0.1635826   0.0000000), wk =   0.0033333
        k(   94) = (   0.0500000   0.1828276   0.0000000), wk =   0.0033333
        k(   95) = (   0.0500000   0.2020726   0.0000000), wk =   0.0033333
        k(   96) = (   0.0500000   0.2213176   0.0000000), wk =   0.0033333
        k(   97) = (   0.0500000   0.2405626   0.0000000), wk =   0.0033333
        k(   98) = (   0.0500000   0.2598076   0.0000000), wk =   0.0033333
        k(   99) = (   0.0500000   0.2790526   0.0000000), wk =   0.0033333
        k(  100) = (   0.0500000   0.2982976   0.0000000), wk =   0.0033333
        k(  101) = (   0.0500000   0.3175426   0.0000000), wk =   0.0033333
        k(  102) = (   0.0500000   0.3367877   0.0000000), wk =   0.0033333
        k(  103) = (   0.0500000   0.3560327   0.0000000), wk =   0.0033333
        k(  104) = (   0.0500000   0.3752777   0.0000000), wk =   0.0033333
        k(  105) = (   0.0500000   0.3945227   0.0000000), wk =   0.0033333
        k(  106) = (   0.0500000   0.4137677   0.0000000), wk =   0.0033333
        k(  107) = (   0.0500000   0.4330127   0.0000000), wk =   0.0033333
        k(  108) = (   0.0500000   0.4522577   0.0000000), wk =   0.0033333
        k(  109) = (   0.0500000   0.4715027   0.0000000), wk =   0.0033333
        k(  110) = (   0.0500000   0.4907477   0.0000000), wk =   0.0033333
        k(  111) = (   0.0500000   0.5099927   0.0000000), wk =   0.0033333
        k(  112) = (   0.0500000   0.5292377   0.0000000), wk =   0.0033333
        k(  113) = (   0.0500000   0.5484828   0.0000000), wk =   0.0033333
        k(  114) = (   0.0500000   0.5677278   0.0000000), wk =   0.0033333
        k(  115) = (   0.0666667   0.1154701   0.0000000), wk =   0.0016667
        k(  116) = (   0.0666667   0.1347151   0.0000000), wk =   0.0033333
        k(  117) = (   0.0666667   0.1539601   0.0000000), wk =   0.0033333
        k(  118) = (   0.0666667   0.1732051   0.0000000), wk =   0.0033333
        k(  119) = (   0.0666667   0.1924501   0.0000000), wk =   0.0033333
        k(  120) = (   0.0666667   0.2116951   0.0000000), wk =   0.0033333
        k(  121) = (   0.0666667   0.2309401   0.0000000), wk =   0.0033333
        k(  122) = (   0.0666667   0.2501851   0.0000000), wk =   0.0033333
        k(  123) = (   0.0666667   0.2694301   0.0000000), wk =   0.0033333
        k(  124) = (   0.0666667   0.2886751   0.0000000), wk =   0.0033333
        k(  125) = (   0.0666667   0.3079201   0.0000000), wk =   0.0033333
        k(  126) = (   0.0666667   0.3271652   0.0000000), wk =   0.0033333
        k(  127) = (   0.0666667   0.3464102   0.0000000), wk =   0.0033333
        k(  128) = (   0.0666667   0.3656552   0.0000000), wk =   0.0033333
        k(  129) = (   0.0666667   0.3849002   0.0000000), wk =   0.0033333
        k(  130) = (   0.0666667   0.4041452   0.0000000), wk =   0.0033333
        k(  131) = (   0.0666667   0.4233902   0.0000000), wk =   0.0033333
        k(  132) = (   0.0666667   0.4426352   0.0000000), wk =   0.0033333
        k(  133) = (   0.0666667   0.4618802   0.0000000), wk =   0.0033333
        k(  134) = (   0.0666667   0.4811252   0.0000000), wk =   0.0033333
        k(  135) = (   0.0666667   0.5003702   0.0000000), wk =   0.0033333
        k(  136) = (   0.0666667   0.5196152   0.0000000), wk =   0.0033333
        k(  137) = (   0.0666667   0.5388603   0.0000000), wk =   0.0033333
        k(  138) = (   0.0666667   0.5581053   0.0000000), wk =   0.0033333
        k(  139) = (   0.0666667   0.5773503   0.0000000), wk =   0.0016667
        k(  140) = (   0.0833333   0.1443376   0.0000000), wk =   0.0016667
        k(  141) = (   0.0833333   0.1635826   0.0000000), wk =   0.0033333
        k(  142) = (   0.0833333   0.1828276   0.0000000), wk =   0.0033333
        k(  143) = (   0.0833333   0.2020726   0.0000000), wk =   0.0033333
        k(  144) = (   0.0833333   0.2213176   0.0000000), wk =   0.0033333
        k(  145) = (   0.0833333   0.2405626   0.0000000), wk =   0.0033333
        k(  146) = (   0.0833333   0.2598076   0.0000000), wk =   0.0033333
        k(  147) = (   0.0833333   0.2790526   0.0000000), wk =   0.0033333
        k(  148) = (   0.0833333   0.2982976   0.0000000), wk =   0.0033333
        k(  149) = (   0.0833333   0.3175426   0.0000000), wk =   0.0033333
        k(  150) = (   0.0833333   0.3367877   0.0000000), wk =   0.0033333
        k(  151) = (   0.0833333   0.3560327   0.0000000), wk =   0.0033333
        k(  152) = (   0.0833333   0.3752777   0.0000000), wk =   0.0033333
        k(  153) = (   0.0833333   0.3945227   0.0000000), wk =   0.0033333
        k(  154) = (   0.0833333   0.4137677   0.0000000), wk =   0.0033333
        k(  155) = (   0.0833333   0.4330127   0.0000000), wk =   0.0033333
        k(  156) = (   0.0833333   0.4522577   0.0000000), wk =   0.0033333
        k(  157) = (   0.0833333   0.4715027   0.0000000), wk =   0.0033333
        k(  158) = (   0.0833333   0.4907477   0.0000000), wk =   0.0033333
        k(  159) = (   0.0833333   0.5099927   0.0000000), wk =   0.0033333
        k(  160) = (   0.0833333   0.5292377   0.0000000), wk =   0.0033333
        k(  161) = (   0.0833333   0.5484828   0.0000000), wk =   0.0033333
        k(  162) = (   0.0833333   0.5677278   0.0000000), wk =   0.0033333
        k(  163) = (   0.1000000   0.1732051   0.0000000), wk =   0.0016667
        k(  164) = (   0.1000000   0.1924501   0.0000000), wk =   0.0033333
        k(  165) = (   0.1000000   0.2116951   0.0000000), wk =   0.0033333
        k(  166) = (   0.1000000   0.2309401   0.0000000), wk =   0.0033333
        k(  167) = (   0.1000000   0.2501851   0.0000000), wk =   0.0033333
        k(  168) = (   0.1000000   0.2694301   0.0000000), wk =   0.0033333
        k(  169) = (   0.1000000   0.2886751   0.0000000), wk =   0.0033333
        k(  170) = (   0.1000000   0.3079201   0.0000000), wk =   0.0033333
        k(  171) = (   0.1000000   0.3271652   0.0000000), wk =   0.0033333
        k(  172) = (   0.1000000   0.3464102   0.0000000), wk =   0.0033333
        k(  173) = (   0.1000000   0.3656552   0.0000000), wk =   0.0033333
        k(  174) = (   0.1000000   0.3849002   0.0000000), wk =   0.0033333
        k(  175) = (   0.1000000   0.4041452   0.0000000), wk =   0.0033333
        k(  176) = (   0.1000000   0.4233902   0.0000000), wk =   0.0033333
        k(  177) = (   0.1000000   0.4426352   0.0000000), wk =   0.0033333
        k(  178) = (   0.1000000   0.4618802   0.0000000), wk =   0.0033333
        k(  179) = (   0.1000000   0.4811252   0.0000000), wk =   0.0033333
        k(  180) = (   0.1000000   0.5003702   0.0000000), wk =   0.0033333
        k(  181) = (   0.1000000   0.5196152   0.0000000), wk =   0.0033333
        k(  182) = (   0.1000000   0.5388603   0.0000000), wk =   0.0033333
        k(  183) = (   0.1000000   0.5581053   0.0000000), wk =   0.0033333
        k(  184) = (   0.1000000   0.5773503   0.0000000), wk =   0.0016667
        k(  185) = (   0.1166667   0.2020726   0.0000000), wk =   0.0016667
        k(  186) = (   0.1166667   0.2213176   0.0000000), wk =   0.0033333
        k(  187) = (   0.1166667   0.2405626   0.0000000), wk =   0.0033333
        k(  188) = (   0.1166667   0.2598076   0.0000000), wk =   0.0033333
        k(  189) = (   0.1166667   0.2790526   0.0000000), wk =   0.0033333
        k(  190) = (   0.1166667   0.2982976   0.0000000), wk =   0.0033333
        k(  191) = (   0.1166667   0.3175426   0.0000000), wk =   0.0033333
        k(  192) = (   0.1166667   0.3367877   0.0000000), wk =   0.0033333
        k(  193) = (   0.1166667   0.3560327   0.0000000), wk =   0.0033333
        k(  194) = (   0.1166667   0.3752777   0.0000000), wk =   0.0033333
        k(  195) = (   0.1166667   0.3945227   0.0000000), wk =   0.0033333
        k(  196) = (   0.1166667   0.4137677   0.0000000), wk =   0.0033333
        k(  197) = (   0.1166667   0.4330127   0.0000000), wk =   0.0033333
        k(  198) = (   0.1166667   0.4522577   0.0000000), wk =   0.0033333
        k(  199) = (   0.1166667   0.4715027   0.0000000), wk =   0.0033333
        k(  200) = (   0.1166667   0.4907477   0.0000000), wk =   0.0033333
        k(  201) = (   0.1166667   0.5099927   0.0000000), wk =   0.0033333
        k(  202) = (   0.1166667   0.5292377   0.0000000), wk =   0.0033333
        k(  203) = (   0.1166667   0.5484828   0.0000000), wk =   0.0033333
        k(  204) = (   0.1166667   0.5677278   0.0000000), wk =   0.0033333
        k(  205) = (   0.1333333   0.2309401   0.0000000), wk =   0.0016667
        k(  206) = (   0.1333333   0.2501851   0.0000000), wk =   0.0033333
        k(  207) = (   0.1333333   0.2694301   0.0000000), wk =   0.0033333
        k(  208) = (   0.1333333   0.2886751   0.0000000), wk =   0.0033333
        k(  209) = (   0.1333333   0.3079201   0.0000000), wk =   0.0033333
        k(  210) = (   0.1333333   0.3271652   0.0000000), wk =   0.0033333
        k(  211) = (   0.1333333   0.3464102   0.0000000), wk =   0.0033333
        k(  212) = (   0.1333333   0.3656552   0.0000000), wk =   0.0033333
        k(  213) = (   0.1333333   0.3849002   0.0000000), wk =   0.0033333
        k(  214) = (   0.1333333   0.4041452   0.0000000), wk =   0.0033333
        k(  215) = (   0.1333333   0.4233902   0.0000000), wk =   0.0033333
        k(  216) = (   0.1333333   0.4426352   0.0000000), wk =   0.0033333
        k(  217) = (   0.1333333   0.4618802   0.0000000), wk =   0.0033333
        k(  218) = (   0.1333333   0.4811252   0.0000000), wk =   0.0033333
        k(  219) = (   0.1333333   0.5003702   0.0000000), wk =   0.0033333
        k(  220) = (   0.1333333   0.5196152   0.0000000), wk =   0.0033333
        k(  221) = (   0.1333333   0.5388603   0.0000000), wk =   0.0033333
        k(  222) = (   0.1333333   0.5581053   0.0000000), wk =   0.0033333
        k(  223) = (   0.1333333   0.5773503   0.0000000), wk =   0.0016667
        k(  224) = (   0.1500000   0.2598076   0.0000000), wk =   0.0016667
        k(  225) = (   0.1500000   0.2790526   0.0000000), wk =   0.0033333
        k(  226) = (   0.1500000   0.2982976   0.0000000), wk =   0.0033333
        k(  227) = (   0.1500000   0.3175426   0.0000000), wk =   0.0033333
        k(  228) = (   0.1500000   0.3367877   0.0000000), wk =   0.0033333
        k(  229) = (   0.1500000   0.3560327   0.0000000), wk =   0.0033333
        k(  230) = (   0.1500000   0.3752777   0.0000000), wk =   0.0033333
        k(  231) = (   0.1500000   0.3945227   0.0000000), wk =   0.0033333
        k(  232) = (   0.1500000   0.4137677   0.0000000), wk =   0.0033333
        k(  233) = (   0.1500000   0.4330127   0.0000000), wk =   0.0033333
        k(  234) = (   0.1500000   0.4522577   0.0000000), wk =   0.0033333
        k(  235) = (   0.1500000   0.4715027   0.0000000), wk =   0.0033333
        k(  236) = (   0.1500000   0.4907477   0.0000000), wk =   0.0033333
        k(  237) = (   0.1500000   0.5099927   0.0000000), wk =   0.0033333
        k(  238) = (   0.1500000   0.5292377   0.0000000), wk =   0.0033333
        k(  239) = (   0.1500000   0.5484828   0.0000000), wk =   0.0033333
        k(  240) = (   0.1500000   0.5677278   0.0000000), wk =   0.0033333
        k(  241) = (   0.1666667   0.2886751   0.0000000), wk =   0.0016667
        k(  242) = (   0.1666667   0.3079201   0.0000000), wk =   0.0033333
        k(  243) = (   0.1666667   0.3271652   0.0000000), wk =   0.0033333
        k(  244) = (   0.1666667   0.3464102   0.0000000), wk =   0.0033333
        k(  245) = (   0.1666667   0.3656552   0.0000000), wk =   0.0033333
        k(  246) = (   0.1666667   0.3849002   0.0000000), wk =   0.0033333
        k(  247) = (   0.1666667   0.4041452   0.0000000), wk =   0.0033333
        k(  248) = (   0.1666667   0.4233902   0.0000000), wk =   0.0033333
        k(  249) = (   0.1666667   0.4426352   0.0000000), wk =   0.0033333
        k(  250) = (   0.1666667   0.4618802   0.0000000), wk =   0.0033333
        k(  251) = (   0.1666667   0.4811252   0.0000000), wk =   0.0033333
        k(  252) = (   0.1666667   0.5003702   0.0000000), wk =   0.0033333
        k(  253) = (   0.1666667   0.5196152   0.0000000), wk =   0.0033333
        k(  254) = (   0.1666667   0.5388603   0.0000000), wk =   0.0033333
        k(  255) = (   0.1666667   0.5581053   0.0000000), wk =   0.0033333
        k(  256) = (   0.1666667   0.5773503   0.0000000), wk =   0.0016667
        k(  257) = (   0.1833333   0.3175426   0.0000000), wk =   0.0016667
        k(  258) = (   0.1833333   0.3367877   0.0000000), wk =   0.0033333
        k(  259) = (   0.1833333   0.3560327   0.0000000), wk =   0.0033333
        k(  260) = (   0.1833333   0.3752777   0.0000000), wk =   0.0033333
        k(  261) = (   0.1833333   0.3945227   0.0000000), wk =   0.0033333
        k(  262) = (   0.1833333   0.4137677   0.0000000), wk =   0.0033333
        k(  263) = (   0.1833333   0.4330127   0.0000000), wk =   0.0033333
        k(  264) = (   0.1833333   0.4522577   0.0000000), wk =   0.0033333
        k(  265) = (   0.1833333   0.4715027   0.0000000), wk =   0.0033333
        k(  266) = (   0.1833333   0.4907477   0.0000000), wk =   0.0033333
        k(  267) = (   0.1833333   0.5099927   0.0000000), wk =   0.0033333
        k(  268) = (   0.1833333   0.5292377   0.0000000), wk =   0.0033333
        k(  269) = (   0.1833333   0.5484828   0.0000000), wk =   0.0033333
        k(  270) = (   0.1833333   0.5677278   0.0000000), wk =   0.0033333
        k(  271) = (   0.2000000   0.3464102   0.0000000), wk =   0.0016667
        k(  272) = (   0.2000000   0.3656552   0.0000000), wk =   0.0033333
        k(  273) = (   0.2000000   0.3849002   0.0000000), wk =   0.0033333
        k(  274) = (   0.2000000   0.4041452   0.0000000), wk =   0.0033333
        k(  275) = (   0.2000000   0.4233902   0.0000000), wk =   0.0033333
        k(  276) = (   0.2000000   0.4426352   0.0000000), wk =   0.0033333
        k(  277) = (   0.2000000   0.4618802   0.0000000), wk =   0.0033333
        k(  278) = (   0.2000000   0.4811252   0.0000000), wk =   0.0033333
        k(  279) = (   0.2000000   0.5003702   0.0000000), wk =   0.0033333
        k(  280) = (   0.2000000   0.5196152   0.0000000), wk =   0.0033333
        k(  281) = (   0.2000000   0.5388603   0.0000000), wk =   0.0033333
        k(  282) = (   0.2000000   0.5581053   0.0000000), wk =   0.0033333
        k(  283) = (   0.2000000   0.5773503   0.0000000), wk =   0.0016667
        k(  284) = (   0.2166667   0.3752777   0.0000000), wk =   0.0016667
        k(  285) = (   0.2166667   0.3945227   0.0000000), wk =   0.0033333
        k(  286) = (   0.2166667   0.4137677   0.0000000), wk =   0.0033333
        k(  287) = (   0.2166667   0.4330127   0.0000000), wk =   0.0033333
        k(  288) = (   0.2166667   0.4522577   0.0000000), wk =   0.0033333
        k(  289) = (   0.2166667   0.4715027   0.0000000), wk =   0.0033333
        k(  290) = (   0.2166667   0.4907477   0.0000000), wk =   0.0033333
        k(  291) = (   0.2166667   0.5099927   0.0000000), wk =   0.0033333
        k(  292) = (   0.2166667   0.5292377   0.0000000), wk =   0.0033333
        k(  293) = (   0.2166667   0.5484828   0.0000000), wk =   0.0033333
        k(  294) = (   0.2166667   0.5677278   0.0000000), wk =   0.0033333
        k(  295) = (   0.2333333   0.4041452   0.0000000), wk =   0.0016667
        k(  296) = (   0.2333333   0.4233902   0.0000000), wk =   0.0033333
        k(  297) = (   0.2333333   0.4426352   0.0000000), wk =   0.0033333
        k(  298) = (   0.2333333   0.4618802   0.0000000), wk =   0.0033333
        k(  299) = (   0.2333333   0.4811252   0.0000000), wk =   0.0033333
        k(  300) = (   0.2333333   0.5003702   0.0000000), wk =   0.0033333
        k(  301) = (   0.2333333   0.5196152   0.0000000), wk =   0.0033333
        k(  302) = (   0.2333333   0.5388603   0.0000000), wk =   0.0033333
        k(  303) = (   0.2333333   0.5581053   0.0000000), wk =   0.0033333
        k(  304) = (   0.2333333   0.5773503   0.0000000), wk =   0.0016667
        k(  305) = (   0.2500000   0.4330127   0.0000000), wk =   0.0016667
        k(  306) = (   0.2500000   0.4522577   0.0000000), wk =   0.0033333
        k(  307) = (   0.2500000   0.4715027   0.0000000), wk =   0.0033333
        k(  308) = (   0.2500000   0.4907477   0.0000000), wk =   0.0033333
        k(  309) = (   0.2500000   0.5099927   0.0000000), wk =   0.0033333
        k(  310) = (   0.2500000   0.5292377   0.0000000), wk =   0.0033333
        k(  311) = (   0.2500000   0.5484828   0.0000000), wk =   0.0033333
        k(  312) = (   0.2500000   0.5677278   0.0000000), wk =   0.0033333
        k(  313) = (   0.2666667   0.4618802   0.0000000), wk =   0.0016667
        k(  314) = (   0.2666667   0.4811252   0.0000000), wk =   0.0033333
        k(  315) = (   0.2666667   0.5003702   0.0000000), wk =   0.0033333
        k(  316) = (   0.2666667   0.5196152   0.0000000), wk =   0.0033333
        k(  317) = (   0.2666667   0.5388603   0.0000000), wk =   0.0033333
        k(  318) = (   0.2666667   0.5581053   0.0000000), wk =   0.0033333
        k(  319) = (   0.2666667   0.5773503   0.0000000), wk =   0.0016667
        k(  320) = (   0.2833333   0.4907477   0.0000000), wk =   0.0016667
        k(  321) = (   0.2833333   0.5099927   0.0000000), wk =   0.0033333
        k(  322) = (   0.2833333   0.5292377   0.0000000), wk =   0.0033333
        k(  323) = (   0.2833333   0.5484828   0.0000000), wk =   0.0033333
        k(  324) = (   0.2833333   0.5677278   0.0000000), wk =   0.0033333
        k(  325) = (   0.3000000   0.5196152   0.0000000), wk =   0.0016667
        k(  326) = (   0.3000000   0.5388603   0.0000000), wk =   0.0033333
        k(  327) = (   0.3000000   0.5581053   0.0000000), wk =   0.0033333
        k(  328) = (   0.3000000   0.5773503   0.0000000), wk =   0.0016667
        k(  329) = (   0.3166667   0.5484828   0.0000000), wk =   0.0016667
        k(  330) = (   0.3166667   0.5677278   0.0000000), wk =   0.0033333
        k(  331) = (   0.3333333   0.5773503   0.0000000), wk =   0.0005556

                       cryst. coord.
        k(    1) = (   0.0000000   0.0000000   0.0000000), wk =   0.0002778
        k(    2) = (   0.0000000   0.0166667   0.0000000), wk =   0.0016667
        k(    3) = (   0.0000000   0.0333333   0.0000000), wk =   0.0016667
        k(    4) = (   0.0000000   0.0500000   0.0000000), wk =   0.0016667
        k(    5) = (   0.0000000   0.0666667   0.0000000), wk =   0.0016667
        k(    6) = (   0.0000000   0.0833333   0.0000000), wk =   0.0016667
        k(    7) = (   0.0000000   0.1000000   0.0000000), wk =   0.0016667
        k(    8) = (   0.0000000   0.1166667   0.0000000), wk =   0.0016667
        k(    9) = (   0.0000000   0.1333333   0.0000000), wk =   0.0016667
        k(   10) = (   0.0000000   0.1500000   0.0000000), wk =   0.0016667
        k(   11) = (   0.0000000   0.1666667   0.0000000), wk =   0.0016667
        k(   12) = (   0.0000000   0.1833333   0.0000000), wk =   0.0016667
        k(   13) = (   0.0000000   0.2000000   0.0000000), wk =   0.0016667
        k(   14) = (   0.0000000   0.2166667   0.0000000), wk =   0.0016667
        k(   15) = (   0.0000000   0.2333333   0.0000000), wk =   0.0016667
        k(   16) = (   0.0000000   0.2500000   0.0000000), wk =   0.0016667
        k(   17) = (   0.0000000   0.2666667   0.0000000), wk =   0.0016667
        k(   18) = (   0.0000000   0.2833333   0.0000000), wk =   0.0016667
        k(   19) = (   0.0000000   0.3000000   0.0000000), wk =   0.0016667
        k(   20) = (   0.0000000   0.3166667   0.0000000), wk =   0.0016667
        k(   21) = (   0.0000000   0.3333333   0.0000000), wk =   0.0016667
        k(   22) = (   0.0000000   0.3500000   0.0000000), wk =   0.0016667
        k(   23) = (   0.0000000   0.3666667   0.0000000), wk =   0.0016667
        k(   24) = (   0.0000000   0.3833333   0.0000000), wk =   0.0016667
        k(   25) = (   0.0000000   0.4000000   0.0000000), wk =   0.0016667
        k(   26) = (   0.0000000   0.4166667   0.0000000), wk =   0.0016667
        k(   27) = (   0.0000000   0.4333333   0.0000000), wk =   0.0016667
        k(   28) = (   0.0000000   0.4500000   0.0000000), wk =   0.0016667
        k(   29) = (   0.0000000   0.4666667   0.0000000), wk =   0.0016667
        k(   30) = (   0.0000000   0.4833333   0.0000000), wk =   0.0016667
        k(   31) = (   0.0000000  -0.5000000   0.0000000), wk =   0.0008333
        k(   32) = (   0.0166667   0.0166667   0.0000000), wk =   0.0016667
        k(   33) = (   0.0166667   0.0333333   0.0000000), wk =   0.0033333
        k(   34) = (   0.0166667   0.0500000   0.0000000), wk =   0.0033333
        k(   35) = (   0.0166667   0.0666667   0.0000000), wk =   0.0033333
        k(   36) = (   0.0166667   0.0833333   0.0000000), wk =   0.0033333
        k(   37) = (   0.0166667   0.1000000   0.0000000), wk =   0.0033333
        k(   38) = (   0.0166667   0.1166667   0.0000000), wk =   0.0033333
        k(   39) = (   0.0166667   0.1333333   0.0000000), wk =   0.0033333
        k(   40) = (   0.0166667   0.1500000   0.0000000), wk =   0.0033333
        k(   41) = (   0.0166667   0.1666667   0.0000000), wk =   0.0033333
        k(   42) = (   0.0166667   0.1833333   0.0000000), wk =   0.0033333
        k(   43) = (   0.0166667   0.2000000   0.0000000), wk =   0.0033333
        k(   44) = (   0.0166667   0.2166667   0.0000000), wk =   0.0033333
        k(   45) = (   0.0166667   0.2333333   0.0000000), wk =   0.0033333
        k(   46) = (   0.0166667   0.2500000   0.0000000), wk =   0.0033333
        k(   47) = (   0.0166667   0.2666667   0.0000000), wk =   0.0033333
        k(   48) = (   0.0166667   0.2833333   0.0000000), wk =   0.0033333
        k(   49) = (   0.0166667   0.3000000   0.0000000), wk =   0.0033333
        k(   50) = (   0.0166667   0.3166667   0.0000000), wk =   0.0033333
        k(   51) = (   0.0166667   0.3333333   0.0000000), wk =   0.0033333
        k(   52) = (   0.0166667   0.3500000   0.0000000), wk =   0.0033333
        k(   53) = (   0.0166667   0.3666667   0.0000000), wk =   0.0033333
        k(   54) = (   0.0166667   0.3833333   0.0000000), wk =   0.0033333
        k(   55) = (   0.0166667   0.4000000   0.0000000), wk =   0.0033333
        k(   56) = (   0.0166667   0.4166667   0.0000000), wk =   0.0033333
        k(   57) = (   0.0166667   0.4333333   0.0000000), wk =   0.0033333
        k(   58) = (   0.0166667   0.4500000   0.0000000), wk =   0.0033333
        k(   59) = (   0.0166667   0.4666667   0.0000000), wk =   0.0033333
        k(   60) = (   0.0166667   0.4833333   0.0000000), wk =   0.0033333
        k(   61) = (   0.0333333   0.0333333   0.0000000), wk =   0.0016667
        k(   62) = (   0.0333333   0.0500000   0.0000000), wk =   0.0033333
        k(   63) = (   0.0333333   0.0666667   0.0000000), wk =   0.0033333
        k(   64) = (   0.0333333   0.0833333   0.0000000), wk =   0.0033333
        k(   65) = (   0.0333333   0.1000000   0.0000000), wk =   0.0033333
        k(   66) = (   0.0333333   0.1166667   0.0000000), wk =   0.0033333
        k(   67) = (   0.0333333   0.1333333   0.0000000), wk =   0.0033333
        k(   68) = (   0.0333333   0.1500000   0.0000000), wk =   0.0033333
        k(   69) = (   0.0333333   0.1666667   0.0000000), wk =   0.0033333
        k(   70) = (   0.0333333   0.1833333   0.0000000), wk =   0.0033333
        k(   71) = (   0.0333333   0.2000000   0.0000000), wk =   0.0033333
        k(   72) = (   0.0333333   0.2166667   0.0000000), wk =   0.0033333
        k(   73) = (   0.0333333   0.2333333   0.0000000), wk =   0.0033333
        k(   74) = (   0.0333333   0.2500000   0.0000000), wk =   0.0033333
        k(   75) = (   0.0333333   0.2666667   0.0000000), wk =   0.0033333
        k(   76) = (   0.0333333   0.2833333   0.0000000), wk =   0.0033333
        k(   77) = (   0.0333333   0.3000000   0.0000000), wk =   0.0033333
        k(   78) = (   0.0333333   0.3166667   0.0000000), wk =   0.0033333
        k(   79) = (   0.0333333   0.3333333   0.0000000), wk =   0.0033333
        k(   80) = (   0.0333333   0.3500000   0.0000000), wk =   0.0033333
        k(   81) = (   0.0333333   0.3666667   0.0000000), wk =   0.0033333
        k(   82) = (   0.0333333   0.3833333   0.0000000), wk =   0.0033333
        k(   83) = (   0.0333333   0.4000000   0.0000000), wk =   0.0033333
        k(   84) = (   0.0333333   0.4166667   0.0000000), wk =   0.0033333
        k(   85) = (   0.0333333   0.4333333   0.0000000), wk =   0.0033333
        k(   86) = (   0.0333333   0.4500000   0.0000000), wk =   0.0033333
        k(   87) = (   0.0333333   0.4666667   0.0000000), wk =   0.0033333
        k(   88) = (   0.0333333   0.4833333   0.0000000), wk =   0.0016667
        k(   89) = (   0.0500000   0.0500000   0.0000000), wk =   0.0016667
        k(   90) = (   0.0500000   0.0666667   0.0000000), wk =   0.0033333
        k(   91) = (   0.0500000   0.0833333   0.0000000), wk =   0.0033333
        k(   92) = (   0.0500000   0.1000000   0.0000000), wk =   0.0033333
        k(   93) = (   0.0500000   0.1166667   0.0000000), wk =   0.0033333
        k(   94) = (   0.0500000   0.1333333   0.0000000), wk =   0.0033333
        k(   95) = (   0.0500000   0.1500000   0.0000000), wk =   0.0033333
        k(   96) = (   0.0500000   0.1666667   0.0000000), wk =   0.0033333
        k(   97) = (   0.0500000   0.1833333   0.0000000), wk =   0.0033333
        k(   98) = (   0.0500000   0.2000000   0.0000000), wk =   0.0033333
        k(   99) = (   0.0500000   0.2166667   0.0000000), wk =   0.0033333
        k(  100) = (   0.0500000   0.2333333   0.0000000), wk =   0.0033333
        k(  101) = (   0.0500000   0.2500000   0.0000000), wk =   0.0033333
        k(  102) = (   0.0500000   0.2666667   0.0000000), wk =   0.0033333
        k(  103) = (   0.0500000   0.2833333   0.0000000), wk =   0.0033333
        k(  104) = (   0.0500000   0.3000000   0.0000000), wk =   0.0033333
        k(  105) = (   0.0500000   0.3166667   0.0000000), wk =   0.0033333
        k(  106) = (   0.0500000   0.3333333   0.0000000), wk =   0.0033333
        k(  107) = (   0.0500000   0.3500000   0.0000000), wk =   0.0033333
        k(  108) = (   0.0500000   0.3666667   0.0000000), wk =   0.0033333
        k(  109) = (   0.0500000   0.3833333   0.0000000), wk =   0.0033333
        k(  110) = (   0.0500000   0.4000000   0.0000000), wk =   0.0033333
        k(  111) = (   0.0500000   0.4166667   0.0000000), wk =   0.0033333
        k(  112) = (   0.0500000   0.4333333   0.0000000), wk =   0.0033333
        k(  113) = (   0.0500000   0.4500000   0.0000000), wk =   0.0033333
        k(  114) = (   0.0500000   0.4666667   0.0000000), wk =   0.0033333
        k(  115) = (   0.0666667   0.0666667   0.0000000), wk =   0.0016667
        k(  116) = (   0.0666667   0.0833333   0.0000000), wk =   0.0033333
        k(  117) = (   0.0666667   0.1000000   0.0000000), wk =   0.0033333
        k(  118) = (   0.0666667   0.1166667   0.0000000), wk =   0.0033333
        k(  119) = (   0.0666667   0.1333333   0.0000000), wk =   0.0033333
        k(  120) = (   0.0666667   0.1500000   0.0000000), wk =   0.0033333
        k(  121) = (   0.0666667   0.1666667   0.0000000), wk =   0.0033333
        k(  122) = (   0.0666667   0.1833333   0.0000000), wk =   0.0033333
        k(  123) = (   0.0666667   0.2000000   0.0000000), wk =   0.0033333
        k(  124) = (   0.0666667   0.2166667   0.0000000), wk =   0.0033333
        k(  125) = (   0.0666667   0.2333333   0.0000000), wk =   0.0033333
        k(  126) = (   0.0666667   0.2500000   0.0000000), wk =   0.0033333
        k(  127) = (   0.0666667   0.2666667   0.0000000), wk =   0.0033333
        k(  128) = (   0.0666667   0.2833333   0.0000000), wk =   0.0033333
        k(  129) = (   0.0666667   0.3000000   0.0000000), wk =   0.0033333
        k(  130) = (   0.0666667   0.3166667   0.0000000), wk =   0.0033333
        k(  131) = (   0.0666667   0.3333333   0.0000000), wk =   0.0033333
        k(  132) = (   0.0666667   0.3500000   0.0000000), wk =   0.0033333
        k(  133) = (   0.0666667   0.3666667   0.0000000), wk =   0.0033333
        k(  134) = (   0.0666667   0.3833333   0.0000000), wk =   0.0033333
        k(  135) = (   0.0666667   0.4000000   0.0000000), wk =   0.0033333
        k(  136) = (   0.0666667   0.4166667   0.0000000), wk =   0.0033333
        k(  137) = (   0.0666667   0.4333333   0.0000000), wk =   0.0033333
        k(  138) = (   0.0666667   0.4500000   0.0000000), wk =   0.0033333
        k(  139) = (   0.0666667   0.4666667   0.0000000), wk =   0.0016667
        k(  140) = (   0.0833333   0.0833333   0.0000000), wk =   0.0016667
        k(  141) = (   0.0833333   0.1000000   0.0000000), wk =   0.0033333
        k(  142) = (   0.0833333   0.1166667   0.0000000), wk =   0.0033333
        k(  143) = (   0.0833333   0.1333333   0.0000000), wk =   0.0033333
        k(  144) = (   0.0833333   0.1500000   0.0000000), wk =   0.0033333
        k(  145) = (   0.0833333   0.1666667   0.0000000), wk =   0.0033333
        k(  146) = (   0.0833333   0.1833333   0.0000000), wk =   0.0033333
        k(  147) = (   0.0833333   0.2000000   0.0000000), wk =   0.0033333
        k(  148) = (   0.0833333   0.2166667   0.0000000), wk =   0.0033333
        k(  149) = (   0.0833333   0.2333333   0.0000000), wk =   0.0033333
        k(  150) = (   0.0833333   0.2500000   0.0000000), wk =   0.0033333
        k(  151) = (   0.0833333   0.2666667   0.0000000), wk =   0.0033333
        k(  152) = (   0.0833333   0.2833333   0.0000000), wk =   0.0033333
        k(  153) = (   0.0833333   0.3000000   0.0000000), wk =   0.0033333
        k(  154) = (   0.0833333   0.3166667   0.0000000), wk =   0.0033333
        k(  155) = (   0.0833333   0.3333333   0.0000000), wk =   0.0033333
        k(  156) = (   0.0833333   0.3500000   0.0000000), wk =   0.0033333
        k(  157) = (   0.0833333   0.3666667   0.0000000), wk =   0.0033333
        k(  158) = (   0.0833333   0.3833333   0.0000000), wk =   0.0033333
        k(  159) = (   0.0833333   0.4000000   0.0000000), wk =   0.0033333
        k(  160) = (   0.0833333   0.4166667   0.0000000), wk =   0.0033333
        k(  161) = (   0.0833333   0.4333333   0.0000000), wk =   0.0033333
        k(  162) = (   0.0833333   0.4500000   0.0000000), wk =   0.0033333
        k(  163) = (   0.1000000   0.1000000   0.0000000), wk =   0.0016667
        k(  164) = (   0.1000000   0.1166667   0.0000000), wk =   0.0033333
        k(  165) = (   0.1000000   0.1333333   0.0000000), wk =   0.0033333
        k(  166) = (   0.1000000   0.1500000   0.0000000), wk =   0.0033333
        k(  167) = (   0.1000000   0.1666667   0.0000000), wk =   0.0033333
        k(  168) = (   0.1000000   0.1833333   0.0000000), wk =   0.0033333
        k(  169) = (   0.1000000   0.2000000   0.0000000), wk =   0.0033333
        k(  170) = (   0.1000000   0.2166667   0.0000000), wk =   0.0033333
        k(  171) = (   0.1000000   0.2333333   0.0000000), wk =   0.0033333
        k(  172) = (   0.1000000   0.2500000   0.0000000), wk =   0.0033333
        k(  173) = (   0.1000000   0.2666667   0.0000000), wk =   0.0033333
        k(  174) = (   0.1000000   0.2833333   0.0000000), wk =   0.0033333
        k(  175) = (   0.1000000   0.3000000   0.0000000), wk =   0.0033333
        k(  176) = (   0.1000000   0.3166667   0.0000000), wk =   0.0033333
        k(  177) = (   0.1000000   0.3333333   0.0000000), wk =   0.0033333
        k(  178) = (   0.1000000   0.3500000   0.0000000), wk =   0.0033333
        k(  179) = (   0.1000000   0.3666667   0.0000000), wk =   0.0033333
        k(  180) = (   0.1000000   0.3833333   0.0000000), wk =   0.0033333
        k(  181) = (   0.1000000   0.4000000   0.0000000), wk =   0.0033333
        k(  182) = (   0.1000000   0.4166667   0.0000000), wk =   0.0033333
        k(  183) = (   0.1000000   0.4333333   0.0000000), wk =   0.0033333
        k(  184) = (   0.1000000   0.4500000   0.0000000), wk =   0.0016667
        k(  185) = (   0.1166667   0.1166667   0.0000000), wk =   0.0016667
        k(  186) = (   0.1166667   0.1333333   0.0000000), wk =   0.0033333
        k(  187) = (   0.1166667   0.1500000   0.0000000), wk =   0.0033333
        k(  188) = (   0.1166667   0.1666667   0.0000000), wk =   0.0033333
        k(  189) = (   0.1166667   0.1833333   0.0000000), wk =   0.0033333
        k(  190) = (   0.1166667   0.2000000   0.0000000), wk =   0.0033333
        k(  191) = (   0.1166667   0.2166667   0.0000000), wk =   0.0033333
        k(  192) = (   0.1166667   0.2333333   0.0000000), wk =   0.0033333
        k(  193) = (   0.1166667   0.2500000   0.0000000), wk =   0.0033333
        k(  194) = (   0.1166667   0.2666667   0.0000000), wk =   0.0033333
        k(  195) = (   0.1166667   0.2833333   0.0000000), wk =   0.0033333
        k(  196) = (   0.1166667   0.3000000   0.0000000), wk =   0.0033333
        k(  197) = (   0.1166667   0.3166667   0.0000000), wk =   0.0033333
        k(  198) = (   0.1166667   0.3333333   0.0000000), wk =   0.0033333
        k(  199) = (   0.1166667   0.3500000   0.0000000), wk =   0.0033333
        k(  200) = (   0.1166667   0.3666667   0.0000000), wk =   0.0033333
        k(  201) = (   0.1166667   0.3833333   0.0000000), wk =   0.0033333
        k(  202) = (   0.1166667   0.4000000   0.0000000), wk =   0.0033333
        k(  203) = (   0.1166667   0.4166667   0.0000000), wk =   0.0033333
        k(  204) = (   0.1166667   0.4333333   0.0000000), wk =   0.0033333
        k(  205) = (   0.1333333   0.1333333   0.0000000), wk =   0.0016667
        k(  206) = (   0.1333333   0.1500000   0.0000000), wk =   0.0033333
        k(  207) = (   0.1333333   0.1666667   0.0000000), wk =   0.0033333
        k(  208) = (   0.1333333   0.1833333   0.0000000), wk =   0.0033333
        k(  209) = (   0.1333333   0.2000000   0.0000000), wk =   0.0033333
        k(  210) = (   0.1333333   0.2166667   0.0000000), wk =   0.0033333
        k(  211) = (   0.1333333   0.2333333   0.0000000), wk =   0.0033333
        k(  212) = (   0.1333333   0.2500000   0.0000000), wk =   0.0033333
        k(  213) = (   0.1333333   0.2666667   0.0000000), wk =   0.0033333
        k(  214) = (   0.1333333   0.2833333   0.0000000), wk =   0.0033333
        k(  215) = (   0.1333333   0.3000000   0.0000000), wk =   0.0033333
        k(  216) = (   0.1333333   0.3166667   0.0000000), wk =   0.0033333
        k(  217) = (   0.1333333   0.3333333   0.0000000), wk =   0.0033333
        k(  218) = (   0.1333333   0.3500000   0.0000000), wk =   0.0033333
        k(  219) = (   0.1333333   0.3666667   0.0000000), wk =   0.0033333
        k(  220) = (   0.1333333   0.3833333   0.0000000), wk =   0.0033333
        k(  221) = (   0.1333333   0.4000000   0.0000000), wk =   0.0033333
        k(  222) = (   0.1333333   0.4166667   0.0000000), wk =   0.0033333
        k(  223) = (   0.1333333   0.4333333   0.0000000), wk =   0.0016667
        k(  224) = (   0.1500000   0.1500000   0.0000000), wk =   0.0016667
        k(  225) = (   0.1500000   0.1666667   0.0000000), wk =   0.0033333
        k(  226) = (   0.1500000   0.1833333   0.0000000), wk =   0.0033333
        k(  227) = (   0.1500000   0.2000000   0.0000000), wk =   0.0033333
        k(  228) = (   0.1500000   0.2166667   0.0000000), wk =   0.0033333
        k(  229) = (   0.1500000   0.2333333   0.0000000), wk =   0.0033333
        k(  230) = (   0.1500000   0.2500000   0.0000000), wk =   0.0033333
        k(  231) = (   0.1500000   0.2666667   0.0000000), wk =   0.0033333
        k(  232) = (   0.1500000   0.2833333   0.0000000), wk =   0.0033333
        k(  233) = (   0.1500000   0.3000000   0.0000000), wk =   0.0033333
        k(  234) = (   0.1500000   0.3166667   0.0000000), wk =   0.0033333
        k(  235) = (   0.1500000   0.3333333   0.0000000), wk =   0.0033333
        k(  236) = (   0.1500000   0.3500000   0.0000000), wk =   0.0033333
        k(  237) = (   0.1500000   0.3666667   0.0000000), wk =   0.0033333
        k(  238) = (   0.1500000   0.3833333   0.0000000), wk =   0.0033333
        k(  239) = (   0.1500000   0.4000000   0.0000000), wk =   0.0033333
        k(  240) = (   0.1500000   0.4166667   0.0000000), wk =   0.0033333
        k(  241) = (   0.1666667   0.1666667   0.0000000), wk =   0.0016667
        k(  242) = (   0.1666667   0.1833333   0.0000000), wk =   0.0033333
        k(  243) = (   0.1666667   0.2000000   0.0000000), wk =   0.0033333
        k(  244) = (   0.1666667   0.2166667   0.0000000), wk =   0.0033333
        k(  245) = (   0.1666667   0.2333333   0.0000000), wk =   0.0033333
        k(  246) = (   0.1666667   0.2500000   0.0000000), wk =   0.0033333
        k(  247) = (   0.1666667   0.2666667   0.0000000), wk =   0.0033333
        k(  248) = (   0.1666667   0.2833333   0.0000000), wk =   0.0033333
        k(  249) = (   0.1666667   0.3000000   0.0000000), wk =   0.0033333
        k(  250) = (   0.1666667   0.3166667   0.0000000), wk =   0.0033333
        k(  251) = (   0.1666667   0.3333333   0.0000000), wk =   0.0033333
        k(  252) = (   0.1666667   0.3500000   0.0000000), wk =   0.0033333
        k(  253) = (   0.1666667   0.3666667   0.0000000), wk =   0.0033333
        k(  254) = (   0.1666667   0.3833333   0.0000000), wk =   0.0033333
        k(  255) = (   0.1666667   0.4000000   0.0000000), wk =   0.0033333
        k(  256) = (   0.1666667   0.4166667   0.0000000), wk =   0.0016667
        k(  257) = (   0.1833333   0.1833333   0.0000000), wk =   0.0016667
        k(  258) = (   0.1833333   0.2000000   0.0000000), wk =   0.0033333
        k(  259) = (   0.1833333   0.2166667   0.0000000), wk =   0.0033333
        k(  260) = (   0.1833333   0.2333333   0.0000000), wk =   0.0033333
        k(  261) = (   0.1833333   0.2500000   0.0000000), wk =   0.0033333
        k(  262) = (   0.1833333   0.2666667   0.0000000), wk =   0.0033333
        k(  263) = (   0.1833333   0.2833333   0.0000000), wk =   0.0033333
        k(  264) = (   0.1833333   0.3000000   0.0000000), wk =   0.0033333
        k(  265) = (   0.1833333   0.3166667   0.0000000), wk =   0.0033333
        k(  266) = (   0.1833333   0.3333333   0.0000000), wk =   0.0033333
        k(  267) = (   0.1833333   0.3500000   0.0000000), wk =   0.0033333
        k(  268) = (   0.1833333   0.3666667   0.0000000), wk =   0.0033333
        k(  269) = (   0.1833333   0.3833333   0.0000000), wk =   0.0033333
        k(  270) = (   0.1833333   0.4000000   0.0000000), wk =   0.0033333
        k(  271) = (   0.2000000   0.2000000   0.0000000), wk =   0.0016667
        k(  272) = (   0.2000000   0.2166667   0.0000000), wk =   0.0033333
        k(  273) = (   0.2000000   0.2333333   0.0000000), wk =   0.0033333
        k(  274) = (   0.2000000   0.2500000   0.0000000), wk =   0.0033333
        k(  275) = (   0.2000000   0.2666667   0.0000000), wk =   0.0033333
        k(  276) = (   0.2000000   0.2833333   0.0000000), wk =   0.0033333
        k(  277) = (   0.2000000   0.3000000   0.0000000), wk =   0.0033333
        k(  278) = (   0.2000000   0.3166667   0.0000000), wk =   0.0033333
        k(  279) = (   0.2000000   0.3333333   0.0000000), wk =   0.0033333
        k(  280) = (   0.2000000   0.3500000   0.0000000), wk =   0.0033333
        k(  281) = (   0.2000000   0.3666667   0.0000000), wk =   0.0033333
        k(  282) = (   0.2000000   0.3833333   0.0000000), wk =   0.0033333
        k(  283) = (   0.2000000   0.4000000   0.0000000), wk =   0.0016667
        k(  284) = (   0.2166667   0.2166667   0.0000000), wk =   0.0016667
        k(  285) = (   0.2166667   0.2333333   0.0000000), wk =   0.0033333
        k(  286) = (   0.2166667   0.2500000   0.0000000), wk =   0.0033333
        k(  287) = (   0.2166667   0.2666667   0.0000000), wk =   0.0033333
        k(  288) = (   0.2166667   0.2833333   0.0000000), wk =   0.0033333
        k(  289) = (   0.2166667   0.3000000   0.0000000), wk =   0.0033333
        k(  290) = (   0.2166667   0.3166667   0.0000000), wk =   0.0033333
        k(  291) = (   0.2166667   0.3333333   0.0000000), wk =   0.0033333
        k(  292) = (   0.2166667   0.3500000   0.0000000), wk =   0.0033333
        k(  293) = (   0.2166667   0.3666667   0.0000000), wk =   0.0033333
        k(  294) = (   0.2166667   0.3833333   0.0000000), wk =   0.0033333
        k(  295) = (   0.2333333   0.2333333   0.0000000), wk =   0.0016667
        k(  296) = (   0.2333333   0.2500000   0.0000000), wk =   0.0033333
        k(  297) = (   0.2333333   0.2666667   0.0000000), wk =   0.0033333
        k(  298) = (   0.2333333   0.2833333   0.0000000), wk =   0.0033333
        k(  299) = (   0.2333333   0.3000000   0.0000000), wk =   0.0033333
        k(  300) = (   0.2333333   0.3166667   0.0000000), wk =   0.0033333
        k(  301) = (   0.2333333   0.3333333   0.0000000), wk =   0.0033333
        k(  302) = (   0.2333333   0.3500000   0.0000000), wk =   0.0033333
        k(  303) = (   0.2333333   0.3666667   0.0000000), wk =   0.0033333
        k(  304) = (   0.2333333   0.3833333   0.0000000), wk =   0.0016667
        k(  305) = (   0.2500000   0.2500000   0.0000000), wk =   0.0016667
        k(  306) = (   0.2500000   0.2666667   0.0000000), wk =   0.0033333
        k(  307) = (   0.2500000   0.2833333   0.0000000), wk =   0.0033333
        k(  308) = (   0.2500000   0.3000000   0.0000000), wk =   0.0033333
        k(  309) = (   0.2500000   0.3166667   0.0000000), wk =   0.0033333
        k(  310) = (   0.2500000   0.3333333   0.0000000), wk =   0.0033333
        k(  311) = (   0.2500000   0.3500000   0.0000000), wk =   0.0033333
        k(  312) = (   0.2500000   0.3666667   0.0000000), wk =   0.0033333
        k(  313) = (   0.2666667   0.2666667   0.0000000), wk =   0.0016667
        k(  314) = (   0.2666667   0.2833333   0.0000000), wk =   0.0033333
        k(  315) = (   0.2666667   0.3000000   0.0000000), wk =   0.0033333
        k(  316) = (   0.2666667   0.3166667   0.0000000), wk =   0.0033333
        k(  317) = (   0.2666667   0.3333333   0.0000000), wk =   0.0033333
        k(  318) = (   0.2666667   0.3500000   0.0000000), wk =   0.0033333
        k(  319) = (   0.2666667   0.3666667   0.0000000), wk =   0.0016667
        k(  320) = (   0.2833333   0.2833333   0.0000000), wk =   0.0016667
        k(  321) = (   0.2833333   0.3000000   0.0000000), wk =   0.0033333
        k(  322) = (   0.2833333   0.3166667   0.0000000), wk =   0.0033333
        k(  323) = (   0.2833333   0.3333333   0.0000000), wk =   0.0033333
        k(  324) = (   0.2833333   0.3500000   0.0000000), wk =   0.0033333
        k(  325) = (   0.3000000   0.3000000   0.0000000), wk =   0.0016667
        k(  326) = (   0.3000000   0.3166667   0.0000000), wk =   0.0033333
        k(  327) = (   0.3000000   0.3333333   0.0000000), wk =   0.0033333
        k(  328) = (   0.3000000   0.3500000   0.0000000), wk =   0.0016667
        k(  329) = (   0.3166667   0.3166667   0.0000000), wk =   0.0016667
        k(  330) = (   0.3166667   0.3333333   0.0000000), wk =   0.0033333
        k(  331) = (   0.3333333   0.3333333   0.0000000), wk =   0.0005556

     Dense  grid:    56613 G-vectors     FFT dimensions: (  30,  30, 150)

     Dynamical RAM for                 wfc:       0.06 MB

     Dynamical RAM for     wfc (w. buffer):       0.06 MB

     Dynamical RAM for           str. fact:       0.02 MB

     Dynamical RAM for           local pot:       0.00 MB

     Dynamical RAM for          nlocal pot:       0.03 MB

     Dynamical RAM for                qrad:       1.78 MB

     Dynamical RAM for          rho,v,vnew:       0.14 MB

     Dynamical RAM for           G-vectors:       0.04 MB

     Dynamical RAM for          h,s,v(r/c):       1.83 MB

     Dynamical RAM for          <psi|beta>:       0.02 MB

     Dynamical RAM for                 psi:       0.25 MB

     Dynamical RAM for                hpsi:       0.25 MB

     Dynamical RAM for      wfcinit/wfcrot:       0.18 MB

     Estimated static dynamical RAM per process >       2.19 MB

     Estimated max dynamical RAM per process >       4.55 MB

     Estimated total dynamical RAM >     382.00 MB

     Check: negative core charge=   -0.000110
     Generating pointlists ...
     new r_m :   0.3148 (alat units)  1.8502 (a.u.) for type    1
     new r_m :   0.3148 (alat units)  1.8502 (a.u.) for type    2

     The potential is recalculated from file :
     run_output/MoS2.save/charge-density

     Starting wfcs are   28 randomized atomic wfcs +   22 random wfcs

     Band Structure Calculation
     Davidson diagonalization with overlap

     Computing kpt #:     1  of   662
     total cpu time spent up to now is        2.7 secs

     Computing kpt #:     2  of   662
     total cpu time spent up to now is        3.0 secs

     Computing kpt #:     3  of   662
     total cpu time spent up to now is        3.4 secs

     Computing kpt #:     4  of   662
     total cpu time spent up to now is        3.7 secs

     Computing kpt #:     5  of   662
     total cpu time spent up to now is        4.1 secs

     Computing kpt #:     6  of   662
     total cpu time spent up to now is        4.4 secs

     Computing kpt #:     7  of   662
     total cpu time spent up to now is        4.7 secs

     Computing kpt #:     8  of   662
     total cpu time spent up to now is        5.1 secs

     Computing kpt #:     9  of   662
     total cpu time spent up to now is        5.4 secs

     Computing kpt #:    10  of   662
     total cpu time spent up to now is        5.7 secs

     Computing kpt #:    11  of   662
     total cpu time spent up to now is        6.0 secs

     Computing kpt #:    12  of   662
     total cpu time spent up to now is        6.3 secs

     Computing kpt #:    13  of   662
     total cpu time spent up to now is        6.6 secs

     Computing kpt #:    14  of   662
     total cpu time spent up to now is        6.9 secs

     Computing kpt #:    15  of   662
     total cpu time spent up to now is        7.2 secs

     Computing kpt #:    16  of   662
     total cpu time spent up to now is        7.5 secs

     Computing kpt #:    17  of   662
     total cpu time spent up to now is        7.9 secs

     Computing kpt #:    18  of   662
     total cpu time spent up to now is        8.2 secs

     Computing kpt #:    19  of   662
     total cpu time spent up to now is        8.5 secs

     Computing kpt #:    20  of   662
     total cpu time spent up to now is        8.8 secs

     Computing kpt #:    21  of   662
     total cpu time spent up to now is        9.1 secs

     Computing kpt #:    22  of   662
     total cpu time spent up to now is        9.4 secs

     Computing kpt #:    23  of   662
     total cpu time spent up to now is        9.7 secs

     Computing kpt #:    24  of   662
     total cpu time spent up to now is       10.0 secs

     Computing kpt #:    25  of   662
     total cpu time spent up to now is       10.3 secs

     Computing kpt #:    26  of   662
     total cpu time spent up to now is       10.6 secs

     Computing kpt #:    27  of   662
     total cpu time spent up to now is       10.9 secs

     Computing kpt #:    28  of   662
     total cpu time spent up to now is       11.2 secs

     Computing kpt #:    29  of   662
     total cpu time spent up to now is       11.5 secs

     Computing kpt #:    30  of   662
     total cpu time spent up to now is       11.8 secs

     Computing kpt #:    31  of   662
     total cpu time spent up to now is       12.1 secs

     Computing kpt #:    32  of   662
     total cpu time spent up to now is       12.5 secs

     Computing kpt #:    33  of   662
     total cpu time spent up to now is       12.9 secs

     Computing kpt #:    34  of   662
     total cpu time spent up to now is       13.3 secs

     Computing kpt #:    35  of   662
     total cpu time spent up to now is       13.6 secs

     Computing kpt #:    36  of   662
     total cpu time spent up to now is       13.9 secs

     Computing kpt #:    37  of   662
     total cpu time spent up to now is       14.2 secs

     Computing kpt #:    38  of   662
     total cpu time spent up to now is       14.5 secs

     Computing kpt #:    39  of   662
     total cpu time spent up to now is       14.9 secs

     Computing kpt #:    40  of   662
     total cpu time spent up to now is       15.2 secs

     Computing kpt #:    41  of   662
     total cpu time spent up to now is       15.5 secs

     Computing kpt #:    42  of   662
     total cpu time spent up to now is       15.8 secs

     Computing kpt #:    43  of   662
     total cpu time spent up to now is       16.1 secs

     Computing kpt #:    44  of   662
     total cpu time spent up to now is       16.4 secs

     Computing kpt #:    45  of   662
     total cpu time spent up to now is       16.7 secs

     Computing kpt #:    46  of   662
     total cpu time spent up to now is       17.1 secs

     Computing kpt #:    47  of   662
     total cpu time spent up to now is       17.4 secs

     Computing kpt #:    48  of   662
     total cpu time spent up to now is       17.7 secs

     Computing kpt #:    49  of   662
     total cpu time spent up to now is       18.0 secs

     Computing kpt #:    50  of   662
     total cpu time spent up to now is       18.3 secs

     Computing kpt #:    51  of   662
     total cpu time spent up to now is       18.6 secs

     Computing kpt #:    52  of   662
     total cpu time spent up to now is       18.9 secs

     Computing kpt #:    53  of   662
     total cpu time spent up to now is       19.2 secs

     Computing kpt #:    54  of   662
     total cpu time spent up to now is       19.5 secs

     Computing kpt #:    55  of   662
     total cpu time spent up to now is       19.8 secs

     Computing kpt #:    56  of   662
     total cpu time spent up to now is       20.2 secs

     Computing kpt #:    57  of   662
     total cpu time spent up to now is       20.5 secs

     Computing kpt #:    58  of   662
     total cpu time spent up to now is       20.8 secs

     Computing kpt #:    59  of   662
     total cpu time spent up to now is       21.1 secs

     Computing kpt #:    60  of   662
     total cpu time spent up to now is       21.4 secs

     Computing kpt #:    61  of   662
     total cpu time spent up to now is       21.7 secs

     Computing kpt #:    62  of   662
     total cpu time spent up to now is       22.1 secs

     Computing kpt #:    63  of   662
     total cpu time spent up to now is       22.4 secs

     Computing kpt #:    64  of   662
     total cpu time spent up to now is       22.7 secs

     Computing kpt #:    65  of   662
     total cpu time spent up to now is       23.0 secs

     Computing kpt #:    66  of   662
     total cpu time spent up to now is       23.3 secs

     Computing kpt #:    67  of   662
     total cpu time spent up to now is       23.6 secs

     Computing kpt #:    68  of   662
     total cpu time spent up to now is       24.0 secs

     Computing kpt #:    69  of   662
     total cpu time spent up to now is       24.3 secs

     Computing kpt #:    70  of   662
     total cpu time spent up to now is       24.6 secs

     Computing kpt #:    71  of   662
     total cpu time spent up to now is       24.9 secs

     Computing kpt #:    72  of   662
     total cpu time spent up to now is       25.2 secs

     Computing kpt #:    73  of   662
     total cpu time spent up to now is       25.5 secs

     Computing kpt #:    74  of   662
     total cpu time spent up to now is       25.8 secs

     Computing kpt #:    75  of   662
     total cpu time spent up to now is       26.1 secs

     Computing kpt #:    76  of   662
     total cpu time spent up to now is       26.4 secs

     Computing kpt #:    77  of   662
     total cpu time spent up to now is       26.8 secs

     Computing kpt #:    78  of   662
     total cpu time spent up to now is       27.1 secs

     Computing kpt #:    79  of   662
     total cpu time spent up to now is       27.4 secs

     Computing kpt #:    80  of   662
     total cpu time spent up to now is       27.7 secs

     Computing kpt #:    81  of   662
     total cpu time spent up to now is       28.0 secs

     Computing kpt #:    82  of   662
     total cpu time spent up to now is       28.3 secs

     Computing kpt #:    83  of   662
     total cpu time spent up to now is       28.6 secs

     Computing kpt #:    84  of   662
     total cpu time spent up to now is       29.0 secs

     Computing kpt #:    85  of   662
     total cpu time spent up to now is       29.3 secs

     Computing kpt #:    86  of   662
     total cpu time spent up to now is       29.6 secs

     Computing kpt #:    87  of   662
     total cpu time spent up to now is       29.9 secs

     Computing kpt #:    88  of   662
     total cpu time spent up to now is       30.2 secs

     Computing kpt #:    89  of   662
     total cpu time spent up to now is       30.5 secs

     Computing kpt #:    90  of   662
     total cpu time spent up to now is       30.8 secs

     Computing kpt #:    91  of   662
     total cpu time spent up to now is       31.1 secs

     Computing kpt #:    92  of   662
     total cpu time spent up to now is       31.5 secs

     Computing kpt #:    93  of   662
     total cpu time spent up to now is       31.8 secs

     Computing kpt #:    94  of   662
     total cpu time spent up to now is       32.1 secs

     Computing kpt #:    95  of   662
     total cpu time spent up to now is       32.4 secs

     Computing kpt #:    96  of   662
     total cpu time spent up to now is       32.7 secs

     Computing kpt #:    97  of   662
     total cpu time spent up to now is       33.0 secs

     Computing kpt #:    98  of   662
     total cpu time spent up to now is       33.4 secs

     Computing kpt #:    99  of   662
     total cpu time spent up to now is       33.7 secs

     Computing kpt #:   100  of   662
     total cpu time spent up to now is       34.0 secs

     Computing kpt #:   101  of   662
     total cpu time spent up to now is       34.3 secs

     Computing kpt #:   102  of   662
     total cpu time spent up to now is       34.6 secs

     Computing kpt #:   103  of   662
     total cpu time spent up to now is       34.9 secs

     Computing kpt #:   104  of   662
     total cpu time spent up to now is       35.2 secs

     Computing kpt #:   105  of   662
     total cpu time spent up to now is       35.5 secs

     Computing kpt #:   106  of   662
     total cpu time spent up to now is       35.9 secs

     Computing kpt #:   107  of   662
     total cpu time spent up to now is       36.2 secs

     Computing kpt #:   108  of   662
     total cpu time spent up to now is       36.5 secs

     Computing kpt #:   109  of   662
     total cpu time spent up to now is       40.6 secs

     Computing kpt #:   110  of   662
     total cpu time spent up to now is       42.4 secs

     Computing kpt #:   111  of   662
     total cpu time spent up to now is       42.8 secs

     Computing kpt #:   112  of   662
     total cpu time spent up to now is       43.2 secs

     Computing kpt #:   113  of   662
     total cpu time spent up to now is       43.5 secs

     Computing kpt #:   114  of   662
     total cpu time spent up to now is       43.8 secs

     Computing kpt #:   115  of   662
     total cpu time spent up to now is       44.1 secs

     Computing kpt #:   116  of   662
     total cpu time spent up to now is       44.4 secs

     Computing kpt #:   117  of   662
     total cpu time spent up to now is       44.7 secs

     Computing kpt #:   118  of   662
     total cpu time spent up to now is       45.1 secs

     Computing kpt #:   119  of   662
     total cpu time spent up to now is       45.4 secs

     Computing kpt #:   120  of   662
     total cpu time spent up to now is       45.7 secs

     Computing kpt #:   121  of   662
     total cpu time spent up to now is       46.0 secs

     Computing kpt #:   122  of   662
     total cpu time spent up to now is       46.3 secs

     Computing kpt #:   123  of   662
     total cpu time spent up to now is       46.7 secs

     Computing kpt #:   124  of   662
     total cpu time spent up to now is       47.0 secs

     Computing kpt #:   125  of   662
     total cpu time spent up to now is       47.3 secs

     Computing kpt #:   126  of   662
     total cpu time spent up to now is       47.7 secs

     Computing kpt #:   127  of   662
     total cpu time spent up to now is       48.0 secs

     Computing kpt #:   128  of   662
     total cpu time spent up to now is       48.3 secs

     Computing kpt #:   129  of   662
     total cpu time spent up to now is       48.6 secs

     Computing kpt #:   130  of   662
     total cpu time spent up to now is       48.9 secs

     Computing kpt #:   131  of   662
     total cpu time spent up to now is       49.2 secs

     Computing kpt #:   132  of   662
     total cpu time spent up to now is       49.6 secs

     Computing kpt #:   133  of   662
     total cpu time spent up to now is       49.9 secs

     Computing kpt #:   134  of   662
     total cpu time spent up to now is       50.2 secs

     Computing kpt #:   135  of   662
     total cpu time spent up to now is       50.5 secs

     Computing kpt #:   136  of   662
     total cpu time spent up to now is       50.8 secs

     Computing kpt #:   137  of   662
     total cpu time spent up to now is       51.1 secs

     Computing kpt #:   138  of   662
     total cpu time spent up to now is       51.4 secs

     Computing kpt #:   139  of   662
     total cpu time spent up to now is       51.7 secs

     Computing kpt #:   140  of   662
     total cpu time spent up to now is       52.0 secs

     Computing kpt #:   141  of   662
     total cpu time spent up to now is       52.4 secs

     Computing kpt #:   142  of   662
     total cpu time spent up to now is       52.7 secs

     Computing kpt #:   143  of   662
     total cpu time spent up to now is       53.0 secs

     Computing kpt #:   144  of   662
     total cpu time spent up to now is       53.3 secs

     Computing kpt #:   145  of   662
     total cpu time spent up to now is       53.6 secs

     Computing kpt #:   146  of   662
     total cpu time spent up to now is       53.9 secs

     Computing kpt #:   147  of   662
     total cpu time spent up to now is       54.3 secs

     Computing kpt #:   148  of   662
     total cpu time spent up to now is       54.6 secs

     Computing kpt #:   149  of   662
     total cpu time spent up to now is       54.9 secs

     Computing kpt #:   150  of   662
     total cpu time spent up to now is       55.3 secs

     Computing kpt #:   151  of   662
     total cpu time spent up to now is       55.6 secs

     Computing kpt #:   152  of   662
     total cpu time spent up to now is       55.9 secs

     Computing kpt #:   153  of   662
     total cpu time spent up to now is       56.2 secs

     Computing kpt #:   154  of   662
     total cpu time spent up to now is       56.5 secs

     Computing kpt #:   155  of   662
     total cpu time spent up to now is       56.8 secs

     Computing kpt #:   156  of   662
     total cpu time spent up to now is       57.1 secs

     Computing kpt #:   157  of   662
     total cpu time spent up to now is       57.5 secs

     Computing kpt #:   158  of   662
     total cpu time spent up to now is       57.8 secs

     Computing kpt #:   159  of   662
     total cpu time spent up to now is       58.1 secs

     Computing kpt #:   160  of   662
     total cpu time spent up to now is       58.4 secs

     Computing kpt #:   161  of   662
     total cpu time spent up to now is       58.7 secs

     Computing kpt #:   162  of   662
     total cpu time spent up to now is       59.0 secs

     Computing kpt #:   163  of   662
     total cpu time spent up to now is       59.3 secs

     Computing kpt #:   164  of   662
     total cpu time spent up to now is       59.7 secs

     Computing kpt #:   165  of   662
     total cpu time spent up to now is       60.0 secs

     Computing kpt #:   166  of   662
     total cpu time spent up to now is       60.3 secs

     Computing kpt #:   167  of   662
     total cpu time spent up to now is       60.7 secs

     Computing kpt #:   168  of   662
     total cpu time spent up to now is       61.0 secs

     Computing kpt #:   169  of   662
     total cpu time spent up to now is       61.3 secs

     Computing kpt #:   170  of   662
     total cpu time spent up to now is       61.6 secs

     Computing kpt #:   171  of   662
     total cpu time spent up to now is       61.9 secs

     Computing kpt #:   172  of   662
     total cpu time spent up to now is       62.3 secs

     Computing kpt #:   173  of   662
     total cpu time spent up to now is       62.6 secs

     Computing kpt #:   174  of   662
     total cpu time spent up to now is       62.9 secs

     Computing kpt #:   175  of   662
     total cpu time spent up to now is       63.2 secs

     Computing kpt #:   176  of   662
     total cpu time spent up to now is       63.5 secs

     Computing kpt #:   177  of   662
     total cpu time spent up to now is       63.9 secs

     Computing kpt #:   178  of   662
     total cpu time spent up to now is       64.2 secs

     Computing kpt #:   179  of   662
     total cpu time spent up to now is       64.5 secs

     Computing kpt #:   180  of   662
     total cpu time spent up to now is       64.8 secs

     Computing kpt #:   181  of   662
     total cpu time spent up to now is       65.1 secs

     Computing kpt #:   182  of   662
     total cpu time spent up to now is       65.4 secs

     Computing kpt #:   183  of   662
     total cpu time spent up to now is       65.7 secs

     Computing kpt #:   184  of   662
     total cpu time spent up to now is       66.0 secs

     Computing kpt #:   185  of   662
     total cpu time spent up to now is       66.3 secs

     Computing kpt #:   186  of   662
     total cpu time spent up to now is       66.7 secs

     Computing kpt #:   187  of   662
     total cpu time spent up to now is       67.0 secs

     Computing kpt #:   188  of   662
     total cpu time spent up to now is       67.4 secs

[...]
     5.5015   7.6596   8.5701   9.4878  10.0037  10.8301  10.9276  11.8178
    12.3837  12.4474  12.6975  13.1328  13.1659  13.6424  13.9156  13.9587
    14.5119  15.0997  15.1829  15.5790  16.5287  16.6980  17.9242  18.0843
    18.5708  19.1088  20.2360  20.3177  20.9128  21.9969  22.0062  22.8937
    23.3533  24.5175

     occupation numbers 
     1.0000   1.0000   1.0000   1.0000   1.0000   1.0000   1.0000   1.0000
     1.0000   1.0000   1.0000   1.0000   1.0000   0.0000   0.0000   0.0000
     0.0000   0.0000   0.0000   0.0000   0.0000   0.0000   0.0000   0.0000
     0.0000   0.0000   0.0000   0.0000   0.0000   0.0000   0.0000   0.0000
     0.0000   0.0000   0.0000   0.0000   0.0000   0.0000   0.0000   0.0000
     0.0000   0.0000   0.0000   0.0000   0.0000   0.0000   0.0000   0.0000
     0.0000   0.0000

          k = 0.2667 0.5196 0.0000 (  7039 PWs)   bands (ev):

   -59.8448 -34.4498 -34.3525 -34.3155 -11.5937 -11.5906  -5.2091  -4.8009
    -3.5286  -3.0008  -2.7989  -1.6510   0.2547   2.5298   3.5102   4.0317
     5.5366   7.5808   8.5202   9.5947  10.2353  11.0003  11.0767  11.7998
    12.3481  12.4228  12.5784  13.0109  13.1712  13.6319  13.9301  13.9952
    14.3864  14.9677  15.1653  15.5070  16.4669  16.8551  17.7477  17.9730
    18.5371  19.0074  20.0563  20.4230  20.8130  21.7940  22.0686  22.8674
    23.4479  24.6984

     occupation numbers 
     1.0000   1.0000   1.0000   1.0000   1.0000   1.0000   1.0000   1.0000
     1.0000   1.0000   1.0000   1.0000   1.0000   0.0000   0.0000   0.0000
     0.0000   0.0000   0.0000   0.0000   0.0000   0.0000   0.0000   0.0000
     0.0000   0.0000   0.0000   0.0000   0.0000   0.0000   0.0000   0.0000
     0.0000   0.0000   0.0000   0.0000   0.0000   0.0000   0.0000   0.0000
     0.0000   0.0000   0.0000   0.0000   0.0000   0.0000   0.0000   0.0000
     0.0000   0.0000

          k = 0.2667 0.5389 0.0000 (  7043 PWs)   bands (ev):

   -59.8445 -34.4483 -34.3516 -34.3226 -11.5786 -11.5678  -5.2482  -4.7606
    -3.6113  -3.0065  -2.7613  -1.7025   0.3069   2.4837   3.5034   4.0965
     5.5626   7.5155   8.4871   9.6807  10.4498  11.1587  11.2201  11.7193
    12.1500  12.4381  12.5450  12.9550  13.1748  13.6208  13.9094  14.0699
    14.2718  14.8664  15.1818  15.4647  16.4258  17.0017  17.5904  17.8719
    18.5178  18.9241  19.8937  20.5567  20.7459  21.5814  22.1186  22.8600
    23.5340  24.7966

     occupation numbers 
     1.0000   1.0000   1.0000   1.0000   1.0000   1.0000   1.0000   1.0000
     1.0000   1.0000   1.0000   1.0000   1.0000   0.0000   0.0000   0.0000
     0.0000   0.0000   0.0000   0.0000   0.0000   0.0000   0.0000   0.0000
     0.0000   0.0000   0.0000   0.0000   0.0000   0.0000   0.0000   0.0000
     0.0000   0.0000   0.0000   0.0000   0.0000   0.0000   0.0000   0.0000
     0.0000   0.0000   0.0000   0.0000   0.0000   0.0000   0.0000   0.0000
     0.0000   0.0000

          k = 0.2667 0.5581 0.0000 (  7049 PWs)   bands (ev):

   -59.8446 -34.4472 -34.3510 -34.3272 -11.5713 -11.5520  -5.2720  -4.7318
    -3.6676  -3.0084  -2.7361  -1.7362   0.3411   2.4526   3.4992   4.1380
     5.5786   7.4723   8.4686   9.7374  10.6127  11.2943  11.3560  11.6187
    11.9186  12.4643  12.5504  12.9229  13.1604  13.6137  13.9428  14.1210
    14.1568  14.8011  15.2044  15.4457  16.4068  17.1154  17.4792  17.7921
    18.5073  18.8694  19.7803  20.6927  20.7084  21.3959  22.1498  22.8589
    23.5941  24.8347

     occupation numbers 
     1.0000   1.0000   1.0000   1.0000   1.0000   1.0000   1.0000   1.0000
     1.0000   1.0000   1.0000   1.0000   1.0000   0.0000   0.0000   0.0000
     0.0000   0.0000   0.0000   0.0000   0.0000   0.0000   0.0000   0.0000
     0.0000   0.0000   0.0000   0.0000   0.0000   0.0000   0.0000   0.0000
     0.0000   0.0000   0.0000   0.0000   0.0000   0.0000   0.0000   0.0000
     0.0000   0.0000   0.0000   0.0000   0.0000   0.0000   0.0000   0.0000
     0.0000   0.0000

          k = 0.2667 0.5774 0.0000 (  7055 PWs)   bands (ev):

   -59.8449 -34.4469 -34.3510 -34.3287 -11.5688 -11.5468  -5.2799  -4.7213
    -3.6876  -3.0088  -2.7271  -1.7480   0.3530   2.4416   3.4977   4.1522
     5.5840   7.4572   8.4627   9.7574  10.6758  11.3659  11.4374  11.5573
    11.7950  12.4764  12.5541  12.9113  13.1495  13.6113  14.0028  14.0717
    14.1392  14.7781  15.2141  15.4408  16.4023  17.1611  17.4385  17.7590
    18.5039  18.8504  19.7394  20.6963  20.7621  21.3099  22.1603  22.8590
    23.6157  24.8448

     occupation numbers 
     1.0000   1.0000   1.0000   1.0000   1.0000   1.0000   1.0000   1.0000
     1.0000   1.0000   1.0000   1.0000   1.0000   0.0000   0.0000   0.0000
     0.0000   0.0000   0.0000   0.0000   0.0000   0.0000   0.0000   0.0000
     0.0000   0.0000   0.0000   0.0000   0.0000   0.0000   0.0000   0.0000
     0.0000   0.0000   0.0000   0.0000   0.0000   0.0000   0.0000   0.0000
     0.0000   0.0000   0.0000   0.0000   0.0000   0.0000   0.0000   0.0000
     0.0000   0.0000

          k = 0.2833 0.4907 0.0000 (  7043 PWs)   bands (ev):

   -59.8456 -34.4496 -34.3539 -34.3085 -11.6281 -11.6060  -5.1590  -4.8324
    -3.4102  -3.0288  -2.8428  -1.5871   0.1917   2.5776   3.5089   3.9532
     5.5129   7.6969   8.5236   9.4880  10.0026  10.8404  10.9392  11.8756
    12.4295  12.4593  12.7478  13.1247  13.3185  13.4207  13.8863  13.9092
    14.6056  15.0685  15.1304  15.5014  16.5319  16.6892  18.0071  18.0880
    18.4601  19.0984  20.2430  20.3173  20.9016  21.9797  22.1048  22.7787
    23.3852  24.5455

     occupation numbers 
     1.0000   1.0000   1.0000   1.0000   1.0000   1.0000   1.0000   1.0000
     1.0000   1.0000   1.0000   1.0000   1.0000   0.0000   0.0000   0.0000
     0.0000   0.0000   0.0000   0.0000   0.0000   0.0000   0.0000   0.0000
     0.0000   0.0000   0.0000   0.0000   0.0000   0.0000   0.0000   0.0000
     0.0000   0.0000   0.0000   0.0000   0.0000   0.0000   0.0000   0.0000
     0.0000   0.0000   0.0000   0.0000   0.0000   0.0000   0.0000   0.0000
     0.0000   0.0000

          k = 0.2833 0.5100 0.0000 (  7045 PWs)   bands (ev):

   -59.8451 -34.4461 -34.3525 -34.3202 -11.5904 -11.5881  -5.2181  -4.7708
    -3.5047  -3.0691  -2.7939  -1.6548   0.2605   2.5156   3.4913   4.0422
     5.5594   7.6500   8.4286   9.5968  10.2388  11.0222  11.1028  11.9335
    12.4039  12.4578  12.6932  13.1280  13.1371  13.3677  13.8348  13.9816
    14.5159  14.9752  15.0016  15.3648  16.4795  16.8355  17.8694  17.9855
    18.3524  18.9804  20.0623  20.4257  20.7806  21.9736  22.0283  22.6672
    23.5222  24.7625

     occupation numbers 
     1.0000   1.0000   1.0000   1.0000   1.0000   1.0000   1.0000   1.0000
     1.0000   1.0000   1.0000   1.0000   1.0000   0.0000   0.0000   0.0000
     0.0000   0.0000   0.0000   0.0000   0.0000   0.0000   0.0000   0.0000
     0.0000   0.0000   0.0000   0.0000   0.0000   0.0000   0.0000   0.0000
     0.0000   0.0000   0.0000   0.0000   0.0000   0.0000   0.0000   0.0000
     0.0000   0.0000   0.0000   0.0000   0.0000   0.0000   0.0000   0.0000
     0.0000   0.0000

          k = 0.2833 0.5292 0.0000 (  7043 PWs)   bands (ev):

   -59.8444 -34.4425 -34.3512 -34.3301 -11.5744 -11.5616  -5.2632  -4.7106
    -3.6040  -3.0864  -2.7502  -1.7128   0.3200   2.4591   3.4774   4.1157
     5.5959   7.6060   8.3584   9.6881  10.4680  11.1930  11.2614  11.9134
    12.3530  12.3805  12.6291  13.0330  13.1728  13.3515  13.7608  14.0906
    14.3770  14.8810  14.9649  15.2725  16.4536  16.9699  17.7059  17.9002
    18.2959  18.8739  19.8874  20.5681  20.6912  21.7825  22.0735  22.6177
    23.6566  24.8267

     occupation numbers 
     1.0000   1.0000   1.0000   1.0000   1.0000   1.0000   1.0000   1.0000
     1.0000   1.0000   1.0000   1.0000   1.0000   0.0000   0.0000   0.0000
     0.0000   0.0000   0.0000   0.0000   0.0000   0.0000   0.0000   0.0000
     0.0000   0.0000   0.0000   0.0000   0.0000   0.0000   0.0000   0.0000
     0.0000   0.0000   0.0000   0.0000   0.0000   0.0000   0.0000   0.0000
     0.0000   0.0000   0.0000   0.0000   0.0000   0.0000   0.0000   0.0000
     0.0000   0.0000

          k = 0.2833 0.5485 0.0000 (  7045 PWs)   bands (ev):

   -59.8441 -34.4396 -34.3506 -34.3372 -11.5650 -11.5421  -5.2937  -4.6601
    -3.6860  -3.0933  -2.7167  -1.7560   0.3642   2.4159   3.4677   4.1684
     5.6211   7.5709   8.3135   9.7553  10.6647  11.3392  11.4120  11.8444
    12.1377  12.3874  12.6016  13.0090  13.2043  13.3350  13.7468  14.1852
    14.2216  14.7845  14.9816  15.2171  16.4539  17.0768  17.5611  17.8373
    18.2670  18.7917  19.7490  20.6342  20.7275  21.5779  22.1065  22.5990
    23.7649  24.8575

     occupation numbers 
     1.0000   1.0000   1.0000   1.0000   1.0000   1.0000   1.0000   1.0000
     1.0000   1.0000   1.0000   1.0000   1.0000   0.0000   0.0000   0.0000
     0.0000   0.0000   0.0000   0.0000   0.0000   0.0000   0.0000   0.0000
     0.0000   0.0000   0.0000   0.0000   0.0000   0.0000   0.0000   0.0000
     0.0000   0.0000   0.0000   0.0000   0.0000   0.0000   0.0000   0.0000
     0.0000   0.0000   0.0000   0.0000   0.0000   0.0000   0.0000   0.0000
     0.0000   0.0000

          k = 0.2833 0.5677 0.0000 (  7041 PWs)   bands (ev):

   -59.8437 -34.4377 -34.3501 -34.3412 -11.5603 -11.5322  -5.3091  -4.6302
    -3.7328  -3.0958  -2.6983  -1.7793   0.3879   2.3924   3.4628   4.1959
     5.6340   7.5514   8.2919   9.7915  10.7856  11.4363  11.5425  11.7801
    11.9434  12.3993  12.5873  13.0090  13.2035  13.3239  13.8002  14.0909
    14.2425  14.7279  14.9946  15.1918  16.4642  17.1380  17.4747  17.8028
    18.2544  18.7465  19.6725  20.6066  20.8610  21.4193  22.1236  22.5929
    23.8265  24.8621

     occupation numbers 
     1.0000   1.0000   1.0000   1.0000   1.0000   1.0000   1.0000   1.0000
     1.0000   1.0000   1.0000   1.0000   1.0000   0.0000   0.0000   0.0000
     0.0000   0.0000   0.0000   0.0000   0.0000   0.0000   0.0000   0.0000
     0.0000   0.0000   0.0000   0.0000   0.0000   0.0000   0.0000   0.0000
     0.0000   0.0000   0.0000   0.0000   0.0000   0.0000   0.0000   0.0000
     0.0000   0.0000   0.0000   0.0000   0.0000   0.0000   0.0000   0.0000
     0.0000   0.0000

          k = 0.3000 0.5196 0.0000 (  7051 PWs)   bands (ev):

   -59.8448 -34.4405 -34.3512 -34.3328 -11.5730 -11.5595  -5.2683  -4.6928
    -3.6012  -3.1146  -2.7464  -1.7163   0.3245   2.4506   3.4686   4.1221
     5.6072   7.6445   8.3071   9.6906  10.4733  11.2038  11.2764  12.0006
    12.3458  12.4385  12.6693  13.0938  13.1694  13.2002  13.7032  14.0995
    14.4533  14.8543  14.8936  15.1964  16.4638  16.9578  17.7781  17.9090
    18.1880  18.8584  19.8867  20.5716  20.6700  21.8862  22.0594  22.5000
    23.7018  24.8123

     occupation numbers 
     1.0000   1.0000   1.0000   1.0000   1.0000   1.0000   1.0000   1.0000
     1.0000   1.0000   1.0000   1.0000   1.0000   0.0000   0.0000   0.0000
     0.0000   0.0000   0.0000   0.0000   0.0000   0.0000   0.0000   0.0000
     0.0000   0.0000   0.0000   0.0000   0.0000   0.0000   0.0000   0.0000
     0.0000   0.0000   0.0000   0.0000   0.0000   0.0000   0.0000   0.0000
     0.0000   0.0000   0.0000   0.0000   0.0000   0.0000   0.0000   0.0000
     0.0000   0.0000

          k = 0.3000 0.5389 0.0000 (  7043 PWs)   bands (ev):

   -59.8439 -34.4349 -34.3503 -34.3431 -11.5619 -11.5370  -5.3047  -4.6189
    -3.7000  -3.1364  -2.7065  -1.7665   0.3763   2.3966   3.4518   4.1838
     5.6430   7.6419   8.2141   9.7644  10.6880  11.3609  11.4446  12.0097
    12.3111  12.3150  12.5996  13.0408  13.1773  13.2346  13.6185  14.2257
    14.3098  14.7849  14.8186  15.0772  16.4820  17.0515  17.6528  17.8621
    18.0940  18.7542  19.7362  20.5897  20.7432  21.7302  22.0875  22.4089
    23.8670  24.8139

     occupation numbers 
     1.0000   1.0000   1.0000   1.0000   1.0000   1.0000   1.0000   1.0000
     1.0000   1.0000   1.0000   1.0000   1.0000   0.0000   0.0000   0.0000
     0.0000   0.0000   0.0000   0.0000   0.0000   0.0000   0.0000   0.0000
     0.0000   0.0000   0.0000   0.0000   0.0000   0.0000   0.0000   0.0000
     0.0000   0.0000   0.0000   0.0000   0.0000   0.0000   0.0000   0.0000
     0.0000   0.0000   0.0000   0.0000   0.0000   0.0000   0.0000   0.0000
     0.0000   0.0000

          k = 0.3000 0.5581 0.0000 (  7039 PWs)   bands (ev):

   -59.8434 -34.4306 -34.3502 -34.3498 -11.5551 -11.5234  -5.3269  -4.5622
    -3.7756  -3.1459  -2.6793  -1.7997   0.4104   2.3606   3.4415   4.2228
     5.6650   7.6409   8.1556   9.8122  10.8496  11.4737  11.6044  11.9801
    12.1241  12.3121  12.5431  13.0364  13.1794  13.2403  13.6504  14.1470
    14.3303  14.6980  14.8134  15.0024  16.5160  17.1079  17.5398  17.8425
    18.0511  18.6821  19.6346  20.5416  20.9166  21.5504  22.1062  22.3707
    23.9912  24.7807

     occupation numbers 
     1.0000   1.0000   1.0000   1.0000   1.0000   1.0000   1.0000   1.0000
     1.0000   1.0000   1.0000   1.0000   1.0000   0.0000   0.0000   0.0000
     0.0000   0.0000   0.0000   0.0000   0.0000   0.0000   0.0000   0.0000
     0.0000   0.0000   0.0000   0.0000   0.0000   0.0000   0.0000   0.0000
     0.0000   0.0000   0.0000   0.0000   0.0000   0.0000   0.0000   0.0000
     0.0000   0.0000   0.0000   0.0000   0.0000   0.0000   0.0000   0.0000
     0.0000   0.0000

          k = 0.3000 0.5774 0.0000 (  7031 PWs)   bands (ev):

   -59.8428 -34.4289 -34.3526 -34.3495 -11.5528 -11.5189  -5.3343  -4.5400
    -3.8046  -3.1486  -2.6696  -1.8115   0.4223   2.3479   3.4380   4.2362
     5.6725   7.6408   8.1357   9.8289  10.9119  11.5165  11.7030  11.9614
    12.0026  12.3186  12.5237  13.0379  13.1826  13.2241  13.7089  14.0577
    14.3749  14.6617  14.8132  14.9756  16.5336  17.1263  17.4938  17.8385
    18.0389  18.6560  19.5986  20.5256  21.0117  21.4507  22.1128  22.3607
    24.0397  24.7601

     occupation numbers 
     1.0000   1.0000   1.0000   1.0000   1.0000   1.0000   1.0000   1.0000
     1.0000   1.0000   1.0000   1.0000   1.0000   0.0000   0.0000   0.0000
     0.0000   0.0000   0.0000   0.0000   0.0000   0.0000   0.0000   0.0000
     0.0000   0.0000   0.0000   0.0000   0.0000   0.0000   0.0000   0.0000
     0.0000   0.0000   0.0000   0.0000   0.0000   0.0000   0.0000   0.0000
     0.0000   0.0000   0.0000   0.0000   0.0000   0.0000   0.0000   0.0000
     0.0000   0.0000

          k = 0.3167 0.5485 0.0000 (  7037 PWs)   bands (ev):

   -59.8432 -34.4278 -34.3537 -34.3496 -11.5534 -11.5205  -5.3328  -4.5361
    -3.7939  -3.1620  -2.6726  -1.8069   0.4182   2.3496   3.4343   4.2319
     5.6756   7.6846   8.0963   9.8193  10.8703  11.4865  11.6258  12.0827
    12.2355  12.2541  12.4886  12.9692  13.2014  13.2459  13.6005  14.1815
    14.3681  14.6909  14.7353  14.9239  16.5357  17.0951  17.5851  17.8580
    17.9579  18.6603  19.6225  20.5177  20.9336  21.6218  22.1013  22.2705
    24.0594  24.7368

     occupation numbers 
     1.0000   1.0000   1.0000   1.0000   1.0000   1.0000   1.0000   1.0000
     1.0000   1.0000   1.0000   1.0000   1.0000   0.0000   0.0000   0.0000
     0.0000   0.0000   0.0000   0.0000   0.0000   0.0000   0.0000   0.0000
     0.0000   0.0000   0.0000   0.0000   0.0000   0.0000   0.0000   0.0000
     0.0000   0.0000   0.0000   0.0000   0.0000   0.0000   0.0000   0.0000
     0.0000   0.0000   0.0000   0.0000   0.0000   0.0000   0.0000   0.0000
     0.0000   0.0000

          k = 0.3167 0.5677 0.0000 (  7037 PWs)   bands (ev):

   -59.8430 -34.4233 -34.3600 -34.3493 -11.5491 -11.5121  -5.3470  -4.4825
    -3.8555  -3.1726  -2.6540  -1.8289   0.4407   2.3242   3.4254   4.2567
     5.6922   7.7203   8.0222   9.8482  10.9778  11.5541  11.7937  12.1000
    12.1046  12.2477  12.4155  12.9277  13.1916  13.2451  13.7062  14.0388
    14.4836  14.6253  14.7009  14.8192  16.5805  17.1107  17.5277  17.8675
    17.8965  18.6070  19.5610  20.4806  21.1024  21.4869  22.1095  22.2087
    24.1981  24.6489

     occupation numbers 
     1.0000   1.0000   1.0000   1.0000   1.0000   1.0000   1.0000   1.0000
     1.0000   1.0000   1.0000   1.0000   1.0000   0.0000   0.0000   0.0000
     0.0000   0.0000   0.0000   0.0000   0.0000   0.0000   0.0000   0.0000
     0.0000   0.0000   0.0000   0.0000   0.0000   0.0000   0.0000   0.0000
     0.0000   0.0000   0.0000   0.0000   0.0000   0.0000   0.0000   0.0000
     0.0000   0.0000   0.0000   0.0000   0.0000   0.0000   0.0000   0.0000
     0.0000   0.0000

          k = 0.3333 0.5774 0.0000 (  7047 PWs)   bands (ev):

   -59.8436 -34.4205 -34.3640 -34.3493 -11.5470 -11.5084  -5.3537  -4.4494
    -3.8896  -3.1806  -2.6450  -1.8392   0.4512   2.3115   3.4200   4.2683
     5.7014   7.7713   7.9529   9.8605  11.0241  11.5810  11.9180  12.0546
    12.1607  12.2210  12.3410  12.8863  13.1497  13.2812  13.7981  13.9453
    14.5733  14.6474  14.6620  14.6701  16.6087  17.1083  17.5242  17.8382
    17.8809  18.5797  19.5356  20.4592  21.2110  21.4241  22.1111  22.1496
    24.3202  24.5494

     occupation numbers 
     1.0000   1.0000   1.0000   1.0000   1.0000   1.0000   1.0000   1.0000
     1.0000   1.0000   1.0000   1.0000   1.0000   0.0000   0.0000   0.0000
     0.0000   0.0000   0.0000   0.0000   0.0000   0.0000   0.0000   0.0000
     0.0000   0.0000   0.0000   0.0000   0.0000   0.0000   0.0000   0.0000
     0.0000   0.0000   0.0000   0.0000   0.0000   0.0000   0.0000   0.0000
     0.0000   0.0000   0.0000   0.0000   0.0000   0.0000   0.0000   0.0000
     0.0000   0.0000

     the Fermi energy is     1.9794 ev
     (compare with:     1.6414 eV, computed in scf)

     Writing output data file run_output/MoS2.save/

     init_run     :      1.13s CPU      1.87s WALL (       1 calls)
     electrons    :    223.75s CPU    241.78s WALL (       1 calls)

     Called by init_run:
     wfcinit      :      0.00s CPU      0.01s WALL (       1 calls)
     wfcinit:atom :      0.03s CPU      0.03s WALL (     662 calls)
     wfcinit:wfcr :     11.84s CPU     11.99s WALL (     662 calls)
     potinit      :      0.16s CPU      0.18s WALL (       1 calls)
     hinit0       :      0.08s CPU      0.09s WALL (       1 calls)

     Called by electrons:
     c_bands      :    223.70s CPU    241.67s WALL (       1 calls)
     v_of_rho     :      0.05s CPU      0.05s WALL (       1 calls)
     v_h          :      0.00s CPU      0.00s WALL (       1 calls)
     v_xc         :      0.05s CPU      0.05s WALL (       1 calls)

     Called by c_bands:
     init_us_2    :      0.03s CPU      0.03s WALL (     662 calls)
     cegterg      :    198.04s CPU    199.28s WALL (     678 calls)

     Called by sum_band:

     Called by *egterg:
     cdiaghg      :    105.02s CPU    105.03s WALL (    9697 calls)
     cegterg:over :     14.60s CPU     14.61s WALL (    9035 calls)
     cegterg:upda :      5.24s CPU      5.24s WALL (    9035 calls)
     cegterg:last :      3.57s CPU      3.59s WALL (    2002 calls)
     h_psi        :     73.35s CPU     74.61s WALL (   10375 calls)
     g_psi        :      0.07s CPU      0.10s WALL (    9035 calls)

     Called by h_psi:
     h_psi:calbec :      3.41s CPU      3.51s WALL (   10375 calls)
     vloc_psi     :     68.86s CPU     69.99s WALL (   10375 calls)
     add_vuspsi   :      1.02s CPU      1.03s WALL (   10375 calls)

     General routines
     calbec       :      3.40s CPU      3.49s WALL (   10375 calls)
     fft          :      0.02s CPU      0.04s WALL (       5 calls)
     fftw         :     67.93s CPU     68.81s WALL (  553402 calls)
     davcio       :      0.05s CPU     16.68s WALL (    1324 calls)

     Parallel routines
     fft_scatt_xy :      1.36s CPU      1.55s WALL (  553407 calls)
     fft_scatt_yz :     54.75s CPU     54.58s WALL (  553407 calls)

     PWSCF        :   6m28.33s CPU   7m47.96s WALL


   This run was terminated on:   9:52:49  11May2021            

=------------------------------------------------------------------------------=
   JOB DONE.
=------------------------------------------------------------------------------=
2 total processes killed (some possibly by mpirun during cleanup)
