
     Program PWSCF v.6.7MaX starts on 11May2021 at 21:44: 0 

     This program is part of the open-source Quantum ESPRESSO suite
     for quantum simulation of materials; please cite
         "P. Giannozzi et al., J. Phys.:Condens. Matter 21 395502 (2009);
         "P. Giannozzi et al., J. Phys.:Condens. Matter 29 465901 (2017);
          URL http://www.quantum-espresso.org", 
     in publications or presentations arising from this work. More details at
     http://www.quantum-espresso.org/quote

     Parallel version (MPI), running on    56 processors

     MPI processes distributed on     2 nodes
     R & G space division:  proc/nbgrp/npool/nimage =      56
     Waiting for input...
     Reading input from standard input

     Current dimensions of program PWSCF are:
     Max number of different atomic species (ntypx) = 10
     Max number of k-points (npk) =  40000
     Max angular momentum in pseudopotentials (lmaxx) =  3

     Atomic positions and unit cell read from directory:
     run_output/BP.save/


     Subspace diagonalization in iterative solution of the eigenvalue problem:
     a serial algorithm will be used


     Parallelization info
     --------------------
     sticks:   dense  smooth     PW     G-vecs:    dense   smooth      PW
     Min          15      15      4                  349      349      62
     Max          16      16      6                  354      354      67
     Sum         851     851    279                19641    19641    3617



     bravais-lattice index     =            9
     lattice parameter (alat)  =       6.2450  a.u.
     unit-cell volume          =     572.3500 (a.u.)^3
     number of atoms/cell      =            4
     number of atomic types    =            1
     number of electrons       =        20.00
     number of Kohn-Sham states=           50
     kinetic-energy cutoff     =      40.0000  Ry
     charge density cutoff     =     160.0000  Ry
     Exchange-correlation= SLA-PW-PBX-PBC
                           (   1   4   3   4   0   0   0)

     celldm(1)=   6.244951  celldm(2)=   3.413047  celldm(3)=   1.377090
     celldm(4)=   0.000000  celldm(5)=   0.000000  celldm(6)=   0.000000

     crystal axes: (cart. coord. in units of alat)
               a(1) = (   0.500000   1.706524   0.000000 )  
               a(2) = (  -0.500000   1.706524   0.000000 )  
               a(3) = (   0.000000   0.000000   1.377090 )  

     reciprocal axes: (cart. coord. in units 2 pi/alat)
               b(1) = (  1.000000  0.292993 -0.000000 )  
               b(2) = ( -1.000000  0.292993  0.000000 )  
               b(3) = (  0.000000 -0.000000  0.726169 )  


     PseudoPot. # 1 for P  read from file:
     PPs/P.pbe-hgh.UPF
     MD5 check sum: 2fd0d529aa5ddd1edad02a885f5e7817
     Pseudo is Norm-conserving, Zval =  5.0
     Generated in analytical, separable form
     Using radial grid of 1147 points,  3 beta functions with: 
                l(1) =   0
                l(2) =   0
                l(3) =   1

     atomic species   valence    mass     pseudopotential
        P              5.00    30.97000     P ( 1.00)

     No symmetry found


                                    s                        frac. trans.

      isym =  1     identity                                     

 cryst.   s( 1) = (     1          0          0      )
                  (     0          1          0      )
                  (     0          0          1      )

 cart.    s( 1) = (  1.0000000  0.0000000  0.0000000 )
                  (  0.0000000  1.0000000  0.0000000 )
                  (  0.0000000  0.0000000  1.0000000 )


     point group C_1 (1)    
     there are  1 classes
     the character table:

       E    
A      1.00

     the symmetry operations in each class and the name of the first element:

     E        1
          identity                                               

   Cartesian axes

     site n.     atom                  positions (alat units)
         1           P   tau(   1) = (   0.5012297   0.6703766   0.0102908  )
         2           P   tau(   2) = (   0.0012201   0.0309392   0.6988268  )
         3           P   tau(   3) = (   0.0012317   0.6704236   0.9377720  )
         4           P   tau(   4) = (   0.5012181   0.0308933   1.6263080  )

   Crystallographic axes

     site n.     atom                  positions (cryst. coord.)
         1           P   tau(   1) = (  0.6976455 -0.3048138  0.0074729  )
         2           P   tau(   2) = (  0.0102851  0.0078449  0.5074665  )
         3           P   tau(   3) = (  0.1976613  0.1951980  0.6809811  )
         4           P   tau(   4) = (  0.5102696 -0.4921666  1.1809748  )

     number of k points=    76
                       cart. coord. in units 2pi/alat
        k(    1) = (   0.0000000   0.0000000   0.0000000), wk =   0.0133333
        k(    2) = (   0.0000000   0.0000000   0.1210282), wk =   0.0266667
        k(    3) = (   0.0000000   0.0000000   0.2420564), wk =   0.0266667
        k(    4) = (   0.0000000   0.0000000  -0.3630846), wk =   0.0133333
        k(    5) = (  -0.2000000   0.0585987   0.0000000), wk =   0.0266667
        k(    6) = (  -0.2000000   0.0585987   0.1210282), wk =   0.0266667
        k(    7) = (  -0.2000000   0.0585987   0.2420564), wk =   0.0266667
        k(    8) = (  -0.2000000   0.0585987  -0.3630846), wk =   0.0266667
        k(    9) = (  -0.4000000   0.1171973   0.0000000), wk =   0.0266667
        k(   10) = (  -0.4000000   0.1171973   0.1210282), wk =   0.0266667
        k(   11) = (  -0.4000000   0.1171973   0.2420564), wk =   0.0266667
        k(   12) = (  -0.4000000   0.1171973  -0.3630846), wk =   0.0266667
        k(   13) = (   0.0000000   0.1171973   0.0000000), wk =   0.0266667
        k(   14) = (   0.0000000   0.1171973   0.1210282), wk =   0.0266667
        k(   15) = (   0.0000000   0.1171973   0.2420564), wk =   0.0266667
        k(   16) = (   0.0000000   0.1171973  -0.3630846), wk =   0.0266667
        k(   17) = (  -0.2000000   0.1757960   0.0000000), wk =   0.0266667
        k(   18) = (  -0.2000000   0.1757960   0.1210282), wk =   0.0266667
        k(   19) = (  -0.2000000   0.1757960   0.2420564), wk =   0.0266667
        k(   20) = (  -0.2000000   0.1757960  -0.3630846), wk =   0.0266667
        k(   21) = (   0.6000000  -0.0585987   0.0000000), wk =   0.0266667
        k(   22) = (   0.6000000  -0.0585987   0.1210282), wk =   0.0266667
        k(   23) = (   0.6000000  -0.0585987   0.2420564), wk =   0.0266667
        k(   24) = (   0.6000000  -0.0585987  -0.3630846), wk =   0.0266667
        k(   25) = (   0.4000000   0.0000000   0.0000000), wk =   0.0266667
        k(   26) = (   0.4000000   0.0000000   0.1210282), wk =   0.0266667
        k(   27) = (   0.4000000   0.0000000   0.2420564), wk =   0.0266667
        k(   28) = (   0.4000000   0.0000000  -0.3630846), wk =   0.0266667
        k(   29) = (   0.0000000   0.2343946   0.0000000), wk =   0.0266667
        k(   30) = (   0.0000000   0.2343946   0.1210282), wk =   0.0266667
        k(   31) = (   0.0000000   0.2343946   0.2420564), wk =   0.0266667
        k(   32) = (   0.0000000   0.2343946  -0.3630846), wk =   0.0266667
        k(   33) = (   0.8000000   0.0000000   0.0000000), wk =   0.0266667
        k(   34) = (   0.8000000   0.0000000   0.1210282), wk =   0.0266667
        k(   35) = (   0.8000000   0.0000000   0.2420564), wk =   0.0266667
        k(   36) = (   0.8000000   0.0000000  -0.3630846), wk =   0.0266667
        k(   37) = (   0.2000000   0.0585987   0.0000000), wk =   0.0266667
        k(   38) = (   0.2000000  -0.0585987   0.1210282), wk =   0.0266667
        k(   39) = (   0.2000000   0.0585987  -0.1210282), wk =   0.0266667
        k(   40) = (  -0.2000000  -0.0585987  -0.1210282), wk =   0.0266667
        k(   41) = (   0.2000000  -0.0585987   0.2420564), wk =   0.0266667
        k(   42) = (   0.2000000   0.0585987  -0.2420564), wk =   0.0266667
        k(   43) = (  -0.2000000  -0.0585987  -0.2420564), wk =   0.0266667
        k(   44) = (   0.2000000   0.0585987   0.3630846), wk =   0.0266667
        k(   45) = (   0.4000000   0.1171973   0.0000000), wk =   0.0266667
        k(   46) = (   0.4000000  -0.1171973   0.1210282), wk =   0.0266667
        k(   47) = (   0.4000000   0.1171973  -0.1210282), wk =   0.0266667
        k(   48) = (  -0.4000000  -0.1171973  -0.1210282), wk =   0.0266667
        k(   49) = (   0.4000000  -0.1171973   0.2420564), wk =   0.0266667
        k(   50) = (   0.4000000   0.1171973  -0.2420564), wk =   0.0266667
        k(   51) = (  -0.4000000  -0.1171973  -0.2420564), wk =   0.0266667
        k(   52) = (   0.4000000   0.1171973   0.3630846), wk =   0.0266667
        k(   53) = (   0.0000000  -0.1171973   0.1210282), wk =   0.0266667
        k(   54) = (   0.0000000  -0.1171973   0.2420564), wk =   0.0266667
        k(   55) = (   0.2000000   0.1757960   0.0000000), wk =   0.0266667
        k(   56) = (   0.2000000  -0.1757960   0.1210282), wk =   0.0266667
        k(   57) = (   0.2000000   0.1757960  -0.1210282), wk =   0.0266667
        k(   58) = (  -0.2000000  -0.1757960  -0.1210282), wk =   0.0266667
        k(   59) = (   0.2000000  -0.1757960   0.2420564), wk =   0.0266667
        k(   60) = (   0.2000000   0.1757960  -0.2420564), wk =   0.0266667
        k(   61) = (  -0.2000000  -0.1757960  -0.2420564), wk =   0.0266667
        k(   62) = (   0.2000000   0.1757960   0.3630846), wk =   0.0266667
        k(   63) = (  -0.6000000  -0.0585987   0.0000000), wk =   0.0266667
        k(   64) = (  -0.6000000   0.0585987   0.1210282), wk =   0.0266667
        k(   65) = (  -0.6000000  -0.0585987  -0.1210282), wk =   0.0266667
        k(   66) = (   0.6000000   0.0585987  -0.1210282), wk =   0.0266667
        k(   67) = (  -0.6000000   0.0585987   0.2420564), wk =   0.0266667
        k(   68) = (  -0.6000000  -0.0585987  -0.2420564), wk =   0.0266667
        k(   69) = (   0.6000000   0.0585987  -0.2420564), wk =   0.0266667
        k(   70) = (  -0.6000000  -0.0585987   0.3630846), wk =   0.0266667
        k(   71) = (  -0.4000000  -0.0000000   0.1210282), wk =   0.0266667
        k(   72) = (  -0.4000000  -0.0000000   0.2420564), wk =   0.0266667
        k(   73) = (   0.0000000  -0.2343946   0.1210282), wk =   0.0266667
        k(   74) = (   0.0000000  -0.2343946   0.2420564), wk =   0.0266667
        k(   75) = (  -0.8000000   0.0000000   0.1210282), wk =   0.0266667
        k(   76) = (  -0.8000000   0.0000000   0.2420564), wk =   0.0266667

                       cryst. coord.
        k(    1) = (   0.0000000   0.0000000   0.0000000), wk =   0.0133333
        k(    2) = (   0.0000000   0.0000000   0.1666667), wk =   0.0266667
        k(    3) = (   0.0000000   0.0000000   0.3333333), wk =   0.0266667
        k(    4) = (   0.0000000   0.0000000  -0.5000000), wk =   0.0133333
        k(    5) = (   0.0000000   0.2000000   0.0000000), wk =   0.0266667
        k(    6) = (   0.0000000   0.2000000   0.1666667), wk =   0.0266667
        k(    7) = (   0.0000000   0.2000000   0.3333333), wk =   0.0266667
        k(    8) = (   0.0000000   0.2000000  -0.5000000), wk =   0.0266667
        k(    9) = (   0.0000000   0.4000000   0.0000000), wk =   0.0266667
        k(   10) = (   0.0000000   0.4000000   0.1666667), wk =   0.0266667
        k(   11) = (   0.0000000   0.4000000   0.3333333), wk =   0.0266667
        k(   12) = (   0.0000000   0.4000000  -0.5000000), wk =   0.0266667
        k(   13) = (   0.2000000   0.2000000   0.0000000), wk =   0.0266667
        k(   14) = (   0.2000000   0.2000000   0.1666667), wk =   0.0266667
        k(   15) = (   0.2000000   0.2000000   0.3333333), wk =   0.0266667
        k(   16) = (   0.2000000   0.2000000  -0.5000000), wk =   0.0266667
        k(   17) = (   0.2000000   0.4000000   0.0000000), wk =   0.0266667
        k(   18) = (   0.2000000   0.4000000   0.1666667), wk =   0.0266667
        k(   19) = (   0.2000000   0.4000000   0.3333333), wk =   0.0266667
        k(   20) = (   0.2000000   0.4000000  -0.5000000), wk =   0.0266667
        k(   21) = (   0.2000000  -0.4000000   0.0000000), wk =   0.0266667
        k(   22) = (   0.2000000  -0.4000000   0.1666667), wk =   0.0266667
        k(   23) = (   0.2000000  -0.4000000   0.3333333), wk =   0.0266667
        k(   24) = (   0.2000000  -0.4000000  -0.5000000), wk =   0.0266667
        k(   25) = (   0.2000000  -0.2000000   0.0000000), wk =   0.0266667
        k(   26) = (   0.2000000  -0.2000000   0.1666667), wk =   0.0266667
        k(   27) = (   0.2000000  -0.2000000   0.3333333), wk =   0.0266667
        k(   28) = (   0.2000000  -0.2000000  -0.5000000), wk =   0.0266667
        k(   29) = (   0.4000000   0.4000000   0.0000000), wk =   0.0266667
        k(   30) = (   0.4000000   0.4000000   0.1666667), wk =   0.0266667
        k(   31) = (   0.4000000   0.4000000   0.3333333), wk =   0.0266667
        k(   32) = (   0.4000000   0.4000000  -0.5000000), wk =   0.0266667
        k(   33) = (   0.4000000  -0.4000000   0.0000000), wk =   0.0266667
        k(   34) = (   0.4000000  -0.4000000   0.1666667), wk =   0.0266667
        k(   35) = (   0.4000000  -0.4000000   0.3333333), wk =   0.0266667
        k(   36) = (   0.4000000  -0.4000000  -0.5000000), wk =   0.0266667
        k(   37) = (   0.2000000   0.0000000   0.0000000), wk =   0.0266667
        k(   38) = (   0.0000000  -0.2000000   0.1666667), wk =   0.0266667
        k(   39) = (   0.2000000   0.0000000  -0.1666667), wk =   0.0266667
        k(   40) = (  -0.2000000   0.0000000  -0.1666667), wk =   0.0266667
        k(   41) = (   0.0000000  -0.2000000   0.3333333), wk =   0.0266667
        k(   42) = (   0.2000000   0.0000000  -0.3333333), wk =   0.0266667
        k(   43) = (  -0.2000000   0.0000000  -0.3333333), wk =   0.0266667
        k(   44) = (   0.2000000   0.0000000   0.5000000), wk =   0.0266667
        k(   45) = (   0.4000000   0.0000000   0.0000000), wk =   0.0266667
        k(   46) = (   0.0000000  -0.4000000   0.1666667), wk =   0.0266667
        k(   47) = (   0.4000000   0.0000000  -0.1666667), wk =   0.0266667
        k(   48) = (  -0.4000000   0.0000000  -0.1666667), wk =   0.0266667
        k(   49) = (   0.0000000  -0.4000000   0.3333333), wk =   0.0266667
        k(   50) = (   0.4000000   0.0000000  -0.3333333), wk =   0.0266667
        k(   51) = (  -0.4000000   0.0000000  -0.3333333), wk =   0.0266667
        k(   52) = (   0.4000000   0.0000000   0.5000000), wk =   0.0266667
        k(   53) = (  -0.2000000  -0.2000000   0.1666667), wk =   0.0266667
        k(   54) = (  -0.2000000  -0.2000000   0.3333333), wk =   0.0266667
        k(   55) = (   0.4000000   0.2000000   0.0000000), wk =   0.0266667
        k(   56) = (  -0.2000000  -0.4000000   0.1666667), wk =   0.0266667
        k(   57) = (   0.4000000   0.2000000  -0.1666667), wk =   0.0266667
        k(   58) = (  -0.4000000  -0.2000000  -0.1666667), wk =   0.0266667
        k(   59) = (  -0.2000000  -0.4000000   0.3333333), wk =   0.0266667
        k(   60) = (   0.4000000   0.2000000  -0.3333333), wk =   0.0266667
        k(   61) = (  -0.4000000  -0.2000000  -0.3333333), wk =   0.0266667
        k(   62) = (   0.4000000   0.2000000   0.5000000), wk =   0.0266667
        k(   63) = (  -0.4000000   0.2000000   0.0000000), wk =   0.0266667
        k(   64) = (  -0.2000000   0.4000000   0.1666667), wk =   0.0266667
        k(   65) = (  -0.4000000   0.2000000  -0.1666667), wk =   0.0266667
        k(   66) = (   0.4000000  -0.2000000  -0.1666667), wk =   0.0266667
        k(   67) = (  -0.2000000   0.4000000   0.3333333), wk =   0.0266667
        k(   68) = (  -0.4000000   0.2000000  -0.3333333), wk =   0.0266667
        k(   69) = (   0.4000000  -0.2000000  -0.3333333), wk =   0.0266667
        k(   70) = (  -0.4000000   0.2000000   0.5000000), wk =   0.0266667
        k(   71) = (  -0.2000000   0.2000000   0.1666667), wk =   0.0266667
        k(   72) = (  -0.2000000   0.2000000   0.3333333), wk =   0.0266667
        k(   73) = (  -0.4000000  -0.4000000   0.1666667), wk =   0.0266667
        k(   74) = (  -0.4000000  -0.4000000   0.3333333), wk =   0.0266667
        k(   75) = (  -0.4000000   0.4000000   0.1666667), wk =   0.0266667
        k(   76) = (  -0.4000000   0.4000000   0.3333333), wk =   0.0266667

     Dense  grid:    19641 G-vectors     FFT dimensions: (  45,  45,  36)

     Dynamical RAM for                 wfc:       0.03 MB

     Dynamical RAM for     wfc (w. buffer):       0.03 MB

     Dynamical RAM for           str. fact:       0.01 MB

     Dynamical RAM for           local pot:       0.00 MB

     Dynamical RAM for          nlocal pot:       0.01 MB

     Dynamical RAM for                qrad:       0.17 MB

     Dynamical RAM for          rho,v,vnew:       0.06 MB

     Dynamical RAM for           G-vectors:       0.02 MB

     Dynamical RAM for          h,s,v(r/c):       1.83 MB

     Dynamical RAM for          <psi|beta>:       0.02 MB

     Dynamical RAM for                 psi:       0.13 MB

     Dynamical RAM for                hpsi:       0.13 MB

     Dynamical RAM for      wfcinit/wfcrot:       0.12 MB

     Estimated static dynamical RAM per process >       0.40 MB

     Estimated max dynamical RAM per process >       2.51 MB

     Estimated total dynamical RAM >     140.41 MB

     The potential is recalculated from file :
     run_output/BP.save/charge-density

     Starting wfcs are   36 randomized atomic wfcs +   14 random wfcs

     Band Structure Calculation
     Davidson diagonalization with overlap

     Computing kpt #:     1  of    76
     total cpu time spent up to now is        1.9 secs

     Computing kpt #:     2  of    76
     total cpu time spent up to now is        2.2 secs

     Computing kpt #:     3  of    76
     total cpu time spent up to now is        2.4 secs

     Computing kpt #:     4  of    76
     total cpu time spent up to now is        2.7 secs

     Computing kpt #:     5  of    76
     total cpu time spent up to now is        2.9 secs

     Computing kpt #:     6  of    76
     total cpu time spent up to now is        3.3 secs

     Computing kpt #:     7  of    76
     total cpu time spent up to now is        3.5 secs

     Computing kpt #:     8  of    76
     total cpu time spent up to now is        3.8 secs

     Computing kpt #:     9  of    76
     total cpu time spent up to now is        4.1 secs

     Computing kpt #:    10  of    76
     total cpu time spent up to now is        4.4 secs

     Computing kpt #:    11  of    76
     total cpu time spent up to now is        4.7 secs

     Computing kpt #:    12  of    76
     total cpu time spent up to now is        5.0 secs

     Computing kpt #:    13  of    76
     total cpu time spent up to now is        5.3 secs

     Computing kpt #:    14  of    76
     total cpu time spent up to now is        5.5 secs

     Computing kpt #:    15  of    76
     total cpu time spent up to now is        5.8 secs

     Computing kpt #:    16  of    76
     total cpu time spent up to now is        6.1 secs

     Computing kpt #:    17  of    76
     total cpu time spent up to now is        6.3 secs

     Computing kpt #:    18  of    76
     total cpu time spent up to now is        6.7 secs

     Computing kpt #:    19  of    76
     total cpu time spent up to now is        7.0 secs

     Computing kpt #:    20  of    76
     total cpu time spent up to now is        7.3 secs

     Computing kpt #:    21  of    76
     total cpu time spent up to now is        7.6 secs

     Computing kpt #:    22  of    76
     total cpu time spent up to now is        7.9 secs

     Computing kpt #:    23  of    76
     total cpu time spent up to now is        8.2 secs

     Computing kpt #:    24  of    76
     total cpu time spent up to now is        8.5 secs

     Computing kpt #:    25  of    76
     total cpu time spent up to now is        8.7 secs

     Computing kpt #:    26  of    76
     total cpu time spent up to now is        9.0 secs

     Computing kpt #:    27  of    76
     total cpu time spent up to now is        9.3 secs

     Computing kpt #:    28  of    76
     total cpu time spent up to now is        9.5 secs

     Computing kpt #:    29  of    76
     total cpu time spent up to now is        9.8 secs

     Computing kpt #:    30  of    76
     total cpu time spent up to now is       10.1 secs

     Computing kpt #:    31  of    76
     total cpu time spent up to now is       10.4 secs

     Computing kpt #:    32  of    76
     total cpu time spent up to now is       10.7 secs

     Computing kpt #:    33  of    76
     total cpu time spent up to now is       11.0 secs

     Computing kpt #:    34  of    76
     total cpu time spent up to now is       11.3 secs

     Computing kpt #:    35  of    76
     total cpu time spent up to now is       11.6 secs

     Computing kpt #:    36  of    76
     total cpu time spent up to now is       11.8 secs

     Computing kpt #:    37  of    76
     total cpu time spent up to now is       12.1 secs

     Computing kpt #:    38  of    76
     total cpu time spent up to now is       12.4 secs

     Computing kpt #:    39  of    76
     total cpu time spent up to now is       12.8 secs

     Computing kpt #:    40  of    76
     total cpu time spent up to now is       13.1 secs

     Computing kpt #:    41  of    76
     total cpu time spent up to now is       13.4 secs

     Computing kpt #:    42  of    76
     total cpu time spent up to now is       13.7 secs

     Computing kpt #:    43  of    76
     total cpu time spent up to now is       14.0 secs

     Computing kpt #:    44  of    76
     total cpu time spent up to now is       14.3 secs

     Computing kpt #:    45  of    76
     total cpu time spent up to now is       14.5 secs

     Computing kpt #:    46  of    76
     total cpu time spent up to now is       14.8 secs

     Computing kpt #:    47  of    76
     total cpu time spent up to now is       15.1 secs

     Computing kpt #:    48  of    76
     total cpu time spent up to now is       15.4 secs

     Computing kpt #:    49  of    76
     total cpu time spent up to now is       15.7 secs

     Computing kpt #:    50  of    76
     total cpu time spent up to now is       16.0 secs

     Computing kpt #:    51  of    76
     total cpu time spent up to now is       16.2 secs

     Computing kpt #:    52  of    76
     total cpu time spent up to now is       16.6 secs

     Computing kpt #:    53  of    76
     total cpu time spent up to now is       16.8 secs

     Computing kpt #:    54  of    76
     total cpu time spent up to now is       17.1 secs

     Computing kpt #:    55  of    76
     total cpu time spent up to now is       17.4 secs

     Computing kpt #:    56  of    76
     total cpu time spent up to now is       17.7 secs

     Computing kpt #:    57  of    76
     total cpu time spent up to now is       18.1 secs

     Computing kpt #:    58  of    76
     total cpu time spent up to now is       18.4 secs

     Computing kpt #:    59  of    76
     total cpu time spent up to now is       18.8 secs

     Computing kpt #:    60  of    76
     total cpu time spent up to now is       19.1 secs

     Computing kpt #:    61  of    76
     total cpu time spent up to now is       19.4 secs

     Computing kpt #:    62  of    76
     total cpu time spent up to now is       19.7 secs

     Computing kpt #:    63  of    76
     total cpu time spent up to now is       20.0 secs

     Computing kpt #:    64  of    76
     total cpu time spent up to now is       20.3 secs

     Computing kpt #:    65  of    76
     total cpu time spent up to now is       20.6 secs

     Computing kpt #:    66  of    76
     total cpu time spent up to now is       20.9 secs

     Computing kpt #:    67  of    76
     total cpu time spent up to now is       21.2 secs

     Computing kpt #:    68  of    76
     total cpu time spent up to now is       21.5 secs

     Computing kpt #:    69  of    76
     total cpu time spent up to now is       21.8 secs

     Computing kpt #:    70  of    76
     total cpu time spent up to now is       22.1 secs

     Computing kpt #:    71  of    76
     total cpu time spent up to now is       22.3 secs

     Computing kpt #:    72  of    76
     total cpu time spent up to now is       22.6 secs

     Computing kpt #:    73  of    76
     total cpu time spent up to now is       22.9 secs

     Computing kpt #:    74  of    76
     total cpu time spent up to now is       23.2 secs

     Computing kpt #:    75  of    76
     total cpu time spent up to now is       23.6 secs

     Computing kpt #:    76  of    76
     total cpu time spent up to now is       23.8 secs

     ethr =  5.00E-06,  avg # of iterations = 11.0

     total cpu time spent up to now is       23.8 secs

     End of band structure calculation

          k = 0.0000 0.0000 0.0000 (  2467 PWs)   bands (ev):

    -9.2378  -6.5579  -3.3071  -0.1857   1.3759   1.5394   2.4736   3.7025
     3.9929   5.3374   7.0592   7.4814   8.3787   9.2145  11.7532  12.5989
    13.0168  13.4815  14.0185  14.4795  14.6300  14.6383  15.1668  16.8983
    17.7150  18.0189  19.4965  19.5540  21.1817  21.1958  21.6860  21.9481
    22.2908  22.4520  22.9556  24.9858  25.2575  25.3596  25.8223  26.2802
    27.1670  28.1447  28.3226  30.6301  30.9994  31.7836  32.6085  32.7881
    32.7963  32.8600

     occupation numbers 
     1.0000   1.0000   1.0000   1.0000   1.0000   1.0000   1.0000   1.0000
     1.0000   1.0000   0.0000   0.0000   0.0000   0.0000   0.0000   0.0000
     0.0000   0.0000   0.0000   0.0000   0.0000   0.0000   0.0000   0.0000
     0.0000   0.0000   0.0000   0.0000   0.0000   0.0000   0.0000   0.0000
     0.0000   0.0000   0.0000   0.0000   0.0000   0.0000   0.0000   0.0000
     0.0000   0.0000   0.0000   0.0000   0.0000   0.0000   0.0000   0.0000
     0.0000   0.0000

          k = 0.0000 0.0000 0.1210 (  2439 PWs)   bands (ev):

    -9.0968  -6.7733  -3.3093  -0.5528   1.1925   2.0969   2.5784   3.9143
     4.4687   4.4751   7.5498   8.0576   8.1340   9.0772  11.0819  11.8010
    13.4905  13.5737  14.1895  14.5618  14.7004  15.2521  15.4760  16.9780
    18.2602  18.2953  18.4093  19.1643  20.2483  20.3924  21.1814  21.3780
    22.1183  23.6251  23.9794  24.3533  24.7517  25.8887  26.6061  27.9659
    28.3159  28.4316  29.1419  29.3806  29.6588  29.8301  30.0199  31.0853
    32.8751  32.9531

     occupation numbers 
     1.0000   1.0000   1.0000   1.0000   1.0000   1.0000   1.0000   1.0000
     1.0000   1.0000   0.0000   0.0000   0.0000   0.0000   0.0000   0.0000
     0.0000   0.0000   0.0000   0.0000   0.0000   0.0000   0.0000   0.0000
     0.0000   0.0000   0.0000   0.0000   0.0000   0.0000   0.0000   0.0000
     0.0000   0.0000   0.0000   0.0000   0.0000   0.0000   0.0000   0.0000
     0.0000   0.0000   0.0000   0.0000   0.0000   0.0000   0.0000   0.0000
     0.0000   0.0000

          k = 0.0000 0.0000 0.2421 (  2439 PWs)   bands (ev):

    -8.6888  -7.3527  -3.0742  -1.5033   1.4620   2.8698   3.2100   3.4249
     3.6639   5.3866   7.6723   7.8653   8.9891   9.4651  10.0625  11.3379
    12.7140  13.0094  14.3216  14.8244  15.7709  16.4652  16.6105  16.6163
    17.2766  18.0384  18.3838  18.5496  19.2178  20.3621  20.6966  21.5942
    21.8666  22.5970  25.0550  25.4253  25.9529  26.4722  26.5423  26.8117
    26.9774  27.1222  28.4796  29.3456  30.1673  30.8616  30.8899  31.0951
    32.1924  32.3458

     occupation numbers 
     1.0000   1.0000   1.0000   1.0000   1.0000   1.0000   1.0000   1.0000
     1.0000   1.0000   0.0000   0.0000   0.0000   0.0000   0.0000   0.0000
     0.0000   0.0000   0.0000   0.0000   0.0000   0.0000   0.0000   0.0000
     0.0000   0.0000   0.0000   0.0000   0.0000   0.0000   0.0000   0.0000
     0.0000   0.0000   0.0000   0.0000   0.0000   0.0000   0.0000   0.0000
     0.0000   0.0000   0.0000   0.0000   0.0000   0.0000   0.0000   0.0000
     0.0000   0.0000

          k = 0.0000 0.0000-0.3631 (  2466 PWs)   bands (ev):

    -8.0667  -8.0666  -2.4406  -2.4406   2.1944   2.1945   3.2739   3.2740
     4.7925   4.7925   7.8700   7.8701   9.3076   9.3077  10.8089  10.8090
    12.1759  12.1761  14.9385  14.9386  16.2858  16.2858  16.7466  16.7466
    17.2432  17.2434  18.8266  18.8267  19.1894  19.1895  21.7173  21.7173
    22.1933  22.1933  25.0415  25.0416  25.1365  25.1366  26.4619  26.4622
    28.3540  28.3541  29.0521  29.0522  29.6553  29.6555  30.3735  30.3736
    33.6355  33.6355

     occupation numbers 
     1.0000   1.0000   1.0000   1.0000   1.0000   1.0000   1.0000   1.0000
     1.0000   1.0000   0.0000   0.0000   0.0000   0.0000   0.0000   0.0000
     0.0000   0.0000   0.0000   0.0000   0.0000   0.0000   0.0000   0.0000
     0.0000   0.0000   0.0000   0.0000   0.0000   0.0000   0.0000   0.0000
     0.0000   0.0000   0.0000   0.0000   0.0000   0.0000   0.0000   0.0000
     0.0000   0.0000   0.0000   0.0000   0.0000   0.0000   0.0000   0.0000
     0.0000   0.0000

          k =-0.2000 0.0586 0.0000 (  2448 PWs)   bands (ev):

    -8.7555  -6.0875  -3.6207   0.2264   0.3358   0.8698   1.9045   2.9020
     3.8943   5.3711   7.3567   7.7102   9.6420   9.8386  10.3894  11.1799
    11.2928  12.8781  13.6937  14.4055  14.9857  16.0281  17.1714  18.0428
    18.3421  18.6638  19.3123  20.0078  20.5607  20.6178  21.8469  22.3726
    22.8785  23.5139  24.6113  24.6222  25.3029  26.1817  26.3977  27.0857
    27.5696  29.1249  29.1363  30.1169  30.7140  30.8290  31.2136  32.0994
    32.1087  32.2481

     occupation numbers 
     1.0000   1.0000   1.0000   1.0000   1.0000   1.0000   1.0000   1.0000
     1.0000   1.0000   0.0000   0.0000   0.0000   0.0000   0.0000   0.0000
     0.0000   0.0000   0.0000   0.0000   0.0000   0.0000   0.0000   0.0000
     0.0000   0.0000   0.0000   0.0000   0.0000   0.0000   0.0000   0.0000
     0.0000   0.0000   0.0000   0.0000   0.0000   0.0000   0.0000   0.0000
     0.0000   0.0000   0.0000   0.0000   0.0000   0.0000   0.0000   0.0000
     0.0000   0.0000

          k =-0.2000 0.0586 0.1210 (  2448 PWs)   bands (ev):

    -8.6176  -6.3185  -3.5010  -0.4986   0.6217   0.8726   2.4151   2.7039
     4.2473   4.7243   7.6940   8.2123   9.0284  10.1686  10.6615  11.1383
    11.9954  12.9844  13.7561  14.2809  15.0412  15.5313  16.5260  17.4550
    18.2239  18.5553  19.3456  20.2152  20.6690  20.7771  21.4077  22.3318
    22.8663  23.8096  23.8438  25.0844  25.1349  25.8573  26.8584  27.0743
    27.9595  28.3937  29.4756  30.3214  30.6540  30.8203  31.3973  31.8886
    32.2755  32.7623

     occupation numbers 
     1.0000   1.0000   1.0000   1.0000   1.0000   1.0000   1.0000   1.0000
     1.0000   1.0000   0.0000   0.0000   0.0000   0.0000   0.0000   0.0000
     0.0000   0.0000   0.0000   0.0000   0.0000   0.0000   0.0000   0.0000
     0.0000   0.0000   0.0000   0.0000   0.0000   0.0000   0.0000   0.0000
     0.0000   0.0000   0.0000   0.0000   0.0000   0.0000   0.0000   0.0000
     0.0000   0.0000   0.0000   0.0000   0.0000   0.0000   0.0000   0.0000
     0.0000   0.0000

          k =-0.2000 0.0586 0.2421 (  2443 PWs)   bands (ev):

    -8.2188  -6.9078  -3.0947  -1.4640   0.6361   1.2693   2.0689   3.4819
     3.9882   4.4481   8.2031   8.7190   9.3824  10.3456  10.9295  11.0034
    12.7772  13.2879  13.8653  14.0139  14.5749  15.4018  16.0401  16.5681
    17.6345  18.4768  18.8837  19.3288  20.5195  21.1285  21.6371  22.4396
    23.0196  23.5000  23.9508  24.6955  24.7789  26.2802  27.0312  27.7763
    28.3463  28.6596  29.2100  29.3229  29.8233  30.8479  31.3825  32.1741
    32.2195  32.6426

     occupation numbers 
     1.0000   1.0000   1.0000   1.0000   1.0000   1.0000   1.0000   1.0000
     1.0000   1.0000   0.0000   0.0000   0.0000   0.0000   0.0000   0.0000
     0.0000   0.0000   0.0000   0.0000   0.0000   0.0000   0.0000   0.0000
     0.0000   0.0000   0.0000   0.0000   0.0000   0.0000   0.0000   0.0000
     0.0000   0.0000   0.0000   0.0000   0.0000   0.0000   0.0000   0.0000
     0.0000   0.0000   0.0000   0.0000   0.0000   0.0000   0.0000   0.0000
     0.0000   0.0000

          k =-0.2000 0.0586-0.3631 (  2432 PWs)   bands (ev):

    -7.6107  -7.6107  -2.3889  -2.3888   0.9873   0.9874   2.5946   2.5946
     4.4606   4.4607   8.6043   8.6044  10.2996  10.2997  10.8410  10.8411
    12.9981  12.9982  13.9166  13.9166  14.9352  14.9353  16.1430  16.1431
    18.3081  18.3081  18.5456  18.5456  20.2957  20.2958  22.4404  22.4405
    22.7381  22.7381  24.6751  24.6751  26.1360  26.1360  27.1284  27.1285
    28.6742  28.6743  29.0615  29.0615  30.0391  30.0391  31.3997  31.3998
    32.4853  32.4853

     occupation numbers 
     1.0000   1.0000   1.0000   1.0000   1.0000   1.0000   1.0000   1.0000
     1.0000   1.0000   0.0000   0.0000   0.0000   0.0000   0.0000   0.0000
     0.0000   0.0000   0.0000   0.0000   0.0000   0.0000   0.0000   0.0000
     0.0000   0.0000   0.0000   0.0000   0.0000   0.0000   0.0000   0.0000
     0.0000   0.0000   0.0000   0.0000   0.0000   0.0000   0.0000   0.0000
     0.0000   0.0000   0.0000   0.0000   0.0000   0.0000   0.0000   0.0000
     0.0000   0.0000

          k =-0.4000 0.1172 0.0000 (  2438 PWs)   bands (ev):

    -7.3581  -5.2971  -4.6858  -2.4107   0.5714   1.0344   2.7393   3.1488
     3.6818   4.4378   6.9613   7.3922   7.6077   8.8697   8.9158  10.3235
    12.6955  12.9213  15.0461  15.4902  16.4272  17.0662  17.3604  17.7729
    18.1817  19.2481  20.4443  21.1836  21.2196  22.4114  22.7251  23.4728
    23.5231  23.8118  24.5633  25.1204  25.7333  26.1736  27.4409  27.6410
    27.7471  27.9538  28.8467  28.8657  30.1226  30.6304  30.7035  30.9458
    31.5031  31.6833

     occupation numbers 
     1.0000   1.0000   1.0000   1.0000   1.0000   1.0000   1.0000   1.0000
     1.0000   1.0000   0.0000   0.0000   0.0000   0.0000   0.0000   0.0000
     0.0000   0.0000   0.0000   0.0000   0.0000   0.0000   0.0000   0.0000
     0.0000   0.0000   0.0000   0.0000   0.0000   0.0000   0.0000   0.0000
     0.0000   0.0000   0.0000   0.0000   0.0000   0.0000   0.0000   0.0000
     0.0000   0.0000   0.0000   0.0000   0.0000   0.0000   0.0000   0.0000
     0.0000   0.0000

          k =-0.4000 0.1172 0.1210 (  2447 PWs)   bands (ev):

    -7.2383  -5.4763  -4.4940  -2.5390   0.2839   1.0150   2.4523   2.8536
     3.7519   4.6476   7.2080   7.6453   8.1458   8.6735  10.0652  10.1741
    12.5539  12.9793  15.2609  15.5542  15.8071  16.5930  17.2304  18.1225
    18.2025  18.9318  19.4200  20.9696  21.1914  22.0740  22.8084  22.9403
    23.2186  23.9978  24.7535  25.0301  25.7117  26.2370  26.6239  27.3089
    27.8796  28.7726  29.3407  29.6796  30.1529  30.4209  30.6753  31.9241
    32.1512  32.5687

     occupation numbers 
     1.0000   1.0000   1.0000   1.0000   1.0000   1.0000   1.0000   1.0000
     1.0000   1.0000   0.0000   0.0000   0.0000   0.0000   0.0000   0.0000
     0.0000   0.0000   0.0000   0.0000   0.0000   0.0000   0.0000   0.0000
     0.0000   0.0000   0.0000   0.0000   0.0000   0.0000   0.0000   0.0000
     0.0000   0.0000   0.0000   0.0000   0.0000   0.0000   0.0000   0.0000
     0.0000   0.0000   0.0000   0.0000   0.0000   0.0000   0.0000   0.0000
     0.0000   0.0000

          k =-0.4000 0.1172 0.2421 (  2442 PWs)   bands (ev):

    -6.8993  -5.8871  -4.0596  -2.9297   0.0715   0.8416   1.7321   2.4883
     3.9296   4.7405   7.7831   8.4452   8.8542   9.4437  10.4052  11.6675
    12.4492  12.8177  13.9103  14.8292  16.1557  16.3614  16.8845  17.6457
    17.9351  18.5281  18.8979  19.8698  20.8443  21.2639  22.6431  23.5927
    23.8132  24.1926  24.5806  24.8273  25.3517  25.6289  26.3183  27.2503
    27.7542  28.9666  29.3588  30.0398  30.2738  31.1664  31.6659  32.3251
    32.8225  33.0084

     occupation numbers 
     1.0000   1.0000   1.0000   1.0000   1.0000   1.0000   1.0000   1.0000
     1.0000   1.0000   0.0000   0.0000   0.0000   0.0000   0.0000   0.0000
     0.0000   0.0000   0.0000   0.0000   0.0000   0.0000   0.0000   0.0000
     0.0000   0.0000   0.0000   0.0000   0.0000   0.0000   0.0000   0.0000
     0.0000   0.0000   0.0000   0.0000   0.0000   0.0000   0.0000   0.0000
     0.0000   0.0000   0.0000   0.0000   0.0000   0.0000   0.0000   0.0000
     0.0000   0.0000

          k =-0.4000 0.1172-0.3631 (  2442 PWs)   bands (ev):

    -6.4083  -6.4082  -3.4952  -3.4951   0.3281   0.3281   1.9097   1.9097
     4.3452   4.3452   8.5609   8.5610   9.4412   9.4413  11.8524  11.8525
    12.5191  12.5192  13.5913  13.5914  16.0595  16.0595  17.0402  17.0403
    17.9693  17.9693  19.2164  19.2165  21.3871  21.3871  22.4367  22.4368
    24.1765  24.1765  24.8602  24.8603  25.8069  25.8070  26.2446  26.2448
    28.3847  28.3848  29.6907  29.6907  30.6416  30.6416  32.0987  32.0988
    33.2507  33.2508

     occupation numbers 
     1.0000   1.0000   1.0000   1.0000   1.0000   1.0000   1.0000   1.0000
     1.0000   1.0000   0.0000   0.0000   0.0000   0.0000   0.0000   0.0000
     0.0000   0.0000   0.0000   0.0000   0.0000   0.0000   0.0000   0.0000
     0.0000   0.0000   0.0000   0.0000   0.0000   0.0000   0.0000   0.0000
     0.0000   0.0000   0.0000   0.0000   0.0000   0.0000   0.0000   0.0000
     0.0000   0.0000   0.0000   0.0000   0.0000   0.0000   0.0000   0.0000
     0.0000   0.0000

          k = 0.0000 0.1172 0.0000 (  2457 PWs)   bands (ev):

    -9.2054  -6.6414  -3.2867  -0.0352   1.2239   1.4227   2.4482   3.9004
     4.0347   5.6620   7.0944   7.4111   8.4452   9.1868  11.5279  11.8269
    12.5197  13.3121  13.8205  13.9866  14.9101  15.2508  16.1400  17.1570
    17.5032  18.3629  19.2153  19.9504  19.9935  20.7271  21.8186  21.9894
    22.5209  23.3625  23.4599  24.9886  25.6368  25.7396  25.7847  26.1536
    27.4183  28.6611  29.0457  30.1351  30.9862  30.9966  31.9861  32.1164
    32.2934  32.5653

     occupation numbers 
     1.0000   1.0000   1.0000   1.0000   1.0000   1.0000   1.0000   1.0000
     1.0000   1.0000   0.0000   0.0000   0.0000   0.0000   0.0000   0.0000
     0.0000   0.0000   0.0000   0.0000   0.0000   0.0000   0.0000   0.0000
     0.0000   0.0000   0.0000   0.0000   0.0000   0.0000   0.0000   0.0000
     0.0000   0.0000   0.0000   0.0000   0.0000   0.0000   0.0000   0.0000
     0.0000   0.0000   0.0000   0.0000   0.0000   0.0000   0.0000   0.0000
     0.0000   0.0000

          k = 0.0000 0.1172 0.1210 (  2452 PWs)   bands (ev):

    -9.0657  -6.8300  -3.3398  -0.5620   1.2338   2.0880   2.5546   3.9473
     4.5525   4.8406   7.5202   7.9002   8.1751   9.0704  11.1588  11.3439
    12.2167  13.5092  14.0384  14.4032  14.9430  15.5494  16.5120  17.2806
    17.9788  18.2610  18.9937  19.0713  20.1776  20.5756  21.0165  21.3841
    21.5878  23.3001  24.7014  24.7905  25.8839  26.2759  26.3621  27.6056
    28.1431  28.4165  28.5044  29.4209  29.6735  30.4410  30.8553  30.8623
    31.4959  32.6960

     occupation numbers 
     1.0000   1.0000   1.0000   1.0000   1.0000   1.0000   1.0000   1.0000
     1.0000   1.0000   0.0000   0.0000   0.0000   0.0000   0.0000   0.0000
     0.0000   0.0000   0.0000   0.0000   0.0000   0.0000   0.0000   0.0000
     0.0000   0.0000   0.0000   0.0000   0.0000   0.0000   0.0000   0.0000
     0.0000   0.0000   0.0000   0.0000   0.0000   0.0000   0.0000   0.0000
     0.0000   0.0000   0.0000   0.0000   0.0000   0.0000   0.0000   0.0000
     0.0000   0.0000

          k = 0.0000 0.1172 0.2421 (  2433 PWs)   bands (ev):

    -8.6624  -7.3645  -3.1798  -1.6326   1.7748   2.8517   3.3170   3.6735
     3.6769   5.3924   7.6815   7.8251   9.0203   9.0307  10.1382  10.7494
    12.6188  12.7686  13.4836  15.3575  15.5662  16.4272  16.8180  17.2653
    17.9885  18.0596  18.3537  19.0759  19.1030  20.2543  20.8895  21.7635
    22.1375  23.2649  23.6944  25.4870  25.8807  25.8929  26.8548  26.9813
    27.5873  28.1347  28.3861  28.8074  29.0572  29.7894  31.2336  31.4182
    32.0609  32.8298

     occupation numbers 
     1.0000   1.0000   1.0000   1.0000   1.0000   1.0000   1.0000   1.0000
     1.0000   1.0000   0.0000   0.0000   0.0000   0.0000   0.0000   0.0000
     0.0000   0.0000   0.0000   0.0000   0.0000   0.0000   0.0000   0.0000
     0.0000   0.0000   0.0000   0.0000   0.0000   0.0000   0.0000   0.0000
     0.0000   0.0000   0.0000   0.0000   0.0000   0.0000   0.0000   0.0000
     0.0000   0.0000   0.0000   0.0000   0.0000   0.0000   0.0000   0.0000
     0.0000   0.0000

          k = 0.0000 0.1172-0.3631 (  2442 PWs)   bands (ev):

    -8.0519  -8.0518  -2.5821  -2.5821   2.5876   2.5877   3.2677   3.2678
     4.7465   4.7465   7.8758   7.8758   9.3684   9.3684  10.0550  10.0550
    12.2965  12.2966  14.4266  14.4267  16.3550  16.3551  16.9859  16.9859
    17.8826  17.8827  19.0024  19.0025  19.3670  19.3671  21.9182  21.9183
    22.6235  22.6236  24.4453  24.4454  25.1358  25.1359  26.3304  26.3305
    27.6287  27.6289  28.9329  28.9330  29.9182  29.9183  30.9642  30.9642
    32.5073  32.5074

     occupation numbers 
     1.0000   1.0000   1.0000   1.0000   1.0000   1.0000   1.0000   1.0000
     1.0000   1.0000   0.0000   0.0000   0.0000   0.0000   0.0000   0.0000
     0.0000   0.0000   0.0000   0.0000   0.0000   0.0000   0.0000   0.0000
     0.0000   0.0000   0.0000   0.0000   0.0000   0.0000   0.0000   0.0000
     0.0000   0.0000   0.0000   0.0000   0.0000   0.0000   0.0000   0.0000
     0.0000   0.0000   0.0000   0.0000   0.0000   0.0000   0.0000   0.0000
     0.0000   0.0000

          k =-0.2000 0.1758 0.0000 (  2457 PWs)   bands (ev):

    -8.7027  -6.2215  -3.6106   0.3311   0.4857   0.8574   1.6638   2.7400
     4.3291   5.6604   7.0776   7.7164   9.8197  10.0227  10.3427  11.2549
    11.4979  11.8201  13.1010  13.9979  14.3782  16.8188  17.1582  17.8789
    17.9609  18.7231  19.0506  20.8528  20.9799  22.1823  22.4168  22.5304
    23.7401  24.0563  24.7779  24.9816  25.3258  25.5267  26.6370  26.9088
    27.0982  27.8867  28.2487  28.5904  30.2812  30.9346  31.4679  32.1187
    32.3247  32.5699

     occupation numbers 
     1.0000   1.0000   1.0000   1.0000   1.0000   1.0000   1.0000   1.0000
     1.0000   1.0000   0.0000   0.0000   0.0000   0.0000   0.0000   0.0000
     0.0000   0.0000   0.0000   0.0000   0.0000   0.0000   0.0000   0.0000
     0.0000   0.0000   0.0000   0.0000   0.0000   0.0000   0.0000   0.0000
     0.0000   0.0000   0.0000   0.0000   0.0000   0.0000   0.0000   0.0000
     0.0000   0.0000   0.0000   0.0000   0.0000   0.0000   0.0000   0.0000
     0.0000   0.0000

          k =-0.2000 0.1758 0.1210 (  2448 PWs)   bands (ev):

    -8.5671  -6.4077  -3.5465  -0.5540   0.5285   1.1543   2.3088   2.6946
     4.5251   5.1675   7.3959   8.1196   9.1845  10.2259  10.5776  10.8181
    11.7369  12.5601  13.0524  13.8917  14.8968  15.5846  16.8893  17.7550
    18.5295  18.7397  19.7041  20.6832  21.2183  21.4768  21.8896  22.1768
    23.2077  23.3566  24.3885  25.4135  25.7153  25.9507  26.2428  26.4579
    27.4456  27.8712  28.9841  29.5685  30.0693  30.8828  31.3939  31.5750
    32.0887  32.7722

     occupation numbers 
     1.0000   1.0000   1.0000   1.0000   1.0000   1.0000   1.0000   1.0000
     1.0000   1.0000   0.0000   0.0000   0.0000   0.0000   0.0000   0.0000
     0.0000   0.0000   0.0000   0.0000   0.0000   0.0000   0.0000   0.0000
     0.0000   0.0000   0.0000   0.0000   0.0000   0.0000   0.0000   0.0000
     0.0000   0.0000   0.0000   0.0000   0.0000   0.0000   0.0000   0.0000
     0.0000   0.0000   0.0000   0.0000   0.0000   0.0000   0.0000   0.0000
     0.0000   0.0000

          k =-0.2000 0.1758 0.2421 (  2437 PWs)   bands (ev):

    -8.1761  -6.9257  -3.2291  -1.6208   0.5281   1.3297   2.4880   3.6396
     4.3540   4.6908   8.3347   8.4162   8.9539  10.0867  10.3780  10.9084
    11.8271  12.8215  13.9270  13.9997  14.3378  15.6412  16.0261  17.8349
    18.5292  18.9104  19.6936  19.8336  20.6567  21.2243  21.7268  22.3653
    23.1151  23.4482  24.1684  24.6659  25.0471  25.5109  26.0882  26.9927
    27.7086  28.3439  29.0640  29.5679  29.7134  30.3792  31.1038  31.8588
    32.1846  33.0135

     occupation numbers 
     1.0000   1.0000   1.0000   1.0000   1.0000   1.0000   1.0000   1.0000
     1.0000   1.0000   0.0000   0.0000   0.0000   0.0000   0.0000   0.0000
     0.0000   0.0000   0.0000   0.0000   0.0000   0.0000   0.0000   0.0000
     0.0000   0.0000   0.0000   0.0000   0.0000   0.0000   0.0000   0.0000
     0.0000   0.0000   0.0000   0.0000   0.0000   0.0000   0.0000   0.0000
     0.0000   0.0000   0.0000   0.0000   0.0000   0.0000   0.0000   0.0000
     0.0000   0.0000

          k =-0.2000 0.1758-0.3631 (  2438 PWs)   bands (ev):

    -7.5869  -7.5868  -2.5652  -2.5652   0.8986   0.8987   3.1672   3.1673
     4.6270   4.6270   8.5729   8.5729   9.4307   9.4307  10.7933  10.7934
    12.3196  12.3197  13.5170  13.5171  15.3813  15.3814  17.1170  17.1170
    18.4040  18.4041  19.5282  19.5283  20.5189  20.5190  22.3646  22.3647
    23.2636  23.2637  24.9435  24.9436  25.1197  25.1197  25.9713  25.9715
    28.0383  28.0384  28.8360  28.8360  29.9909  29.9910  31.2366  31.2367
    32.7192  32.7192

     occupation numbers 
     1.0000   1.0000   1.0000   1.0000   1.0000   1.0000   1.0000   1.0000
     1.0000   1.0000   0.0000   0.0000   0.0000   0.0000   0.0000   0.0000
     0.0000   0.0000   0.0000   0.0000   0.0000   0.0000   0.0000   0.0000
     0.0000   0.0000   0.0000   0.0000   0.0000   0.0000   0.0000   0.0000
     0.0000   0.0000   0.0000   0.0000   0.0000   0.0000   0.0000   0.0000
     0.0000   0.0000   0.0000   0.0000   0.0000   0.0000   0.0000   0.0000
     0.0000   0.0000

          k = 0.6000-0.0586 0.0000 (  2451 PWs)   bands (ev):

    -7.3084  -5.3306  -4.8148  -2.2958   0.5621   1.1885   2.5686   3.0077
     3.9875   4.2826   7.0724   7.5592   7.5744   8.7197   8.9261  10.5868
    12.5330  13.1155  13.9280  15.5490  15.6416  16.1139  17.4862  18.6160
    19.2030  20.2766  20.7743  21.1764  21.7703  21.7741  22.7999  23.7085
    23.7677  24.2666  24.3116  25.3082  25.8434  25.9467  26.8805  27.2335
    27.6526  27.6598  28.3809  29.3560  29.8655  30.0958  30.1306  31.0757
    31.3070  32.2280

     occupation numbers 
     1.0000   1.0000   1.0000   1.0000   1.0000   1.0000   1.0000   1.0000
     1.0000   1.0000   0.0000   0.0000   0.0000   0.0000   0.0000   0.0000
     0.0000   0.0000   0.0000   0.0000   0.0000   0.0000   0.0000   0.0000
     0.0000   0.0000   0.0000   0.0000   0.0000   0.0000   0.0000   0.0000
     0.0000   0.0000   0.0000   0.0000   0.0000   0.0000   0.0000   0.0000
     0.0000   0.0000   0.0000   0.0000   0.0000   0.0000   0.0000   0.0000
     0.0000   0.0000

          k = 0.6000-0.0586 0.1210 (  2447 PWs)   bands (ev):

    -7.1913  -5.5102  -4.6007  -2.4559   0.2165   1.1130   2.3455   2.8053
     4.2027   4.5415   7.0153   7.7978   8.3196   8.5513  10.0755  10.1728
    11.8417  13.4808  14.1669  14.9308  15.8270  16.9693  17.8935  18.0647
    18.8319  19.2415  20.3254  20.6509  21.4755  21.7920  22.2098  23.1995
    23.6262  24.1670  24.7562  25.0259  25.4755  26.4870  27.0408  27.4379
    27.6824  28.3750  29.0556  29.3965  29.5935  30.0707  30.8011  31.1672
    31.6632  32.6915

     occupation numbers 
     1.0000   1.0000   1.0000   1.0000   1.0000   1.0000   1.0000   1.0000
     1.0000   1.0000   0.0000   0.0000   0.0000   0.0000   0.0000   0.0000
     0.0000   0.0000   0.0000   0.0000   0.0000   0.0000   0.0000   0.0000
     0.0000   0.0000   0.0000   0.0000   0.0000   0.0000   0.0000   0.0000
     0.0000   0.0000   0.0000   0.0000   0.0000   0.0000   0.0000   0.0000
     0.0000   0.0000   0.0000   0.0000   0.0000   0.0000   0.0000   0.0000
     0.0000   0.0000

          k = 0.6000-0.0586 0.2421 (  2448 PWs)   bands (ev):

    -6.8612  -5.8963  -4.1368  -2.9135  -0.0746   0.7305   1.8338   2.6264
     4.4699   4.8433   7.3416   8.6733   8.8622   9.2781  10.0956  11.2054
    12.0334  12.7175  13.5608  15.3624  16.1294  16.8957  17.0360  17.8187
    18.1979  18.8421  19.5135  19.9940  20.7339  21.7768  22.0219  23.0473
    23.6979  23.9521  24.0485  24.8860  25.3959  26.5365  26.7515  27.2757
    27.9959  28.7390  29.2839  29.7625  30.0581  30.5830  30.9140  31.0919
    32.3793  32.9194

     occupation numbers 
     1.0000   1.0000   1.0000   1.0000   1.0000   1.0000   1.0000   1.0000
     1.0000   1.0000   0.0000   0.0000   0.0000   0.0000   0.0000   0.0000
     0.0000   0.0000   0.0000   0.0000   0.0000   0.0000   0.0000   0.0000
     0.0000   0.0000   0.0000   0.0000   0.0000   0.0000   0.0000   0.0000
     0.0000   0.0000   0.0000   0.0000   0.0000   0.0000   0.0000   0.0000
     0.0000   0.0000   0.0000   0.0000   0.0000   0.0000   0.0000   0.0000
     0.0000   0.0000

          k = 0.6000-0.0586-0.3631 (  2442 PWs)   bands (ev):

    -6.3887  -6.3886  -3.5351  -3.5350   0.1396   0.1397   2.1112   2.1112
     4.7397   4.7398   8.1640   8.1641   9.4559   9.4559  11.1181  11.1182
    12.5285  12.5286  13.7752  13.7753  16.5247  16.5248  17.0848  17.0849
    18.2242  18.2243  19.9025  19.9026  20.9407  20.9408  22.9100  22.9100
    23.5861  23.5861  24.4690  24.4691  25.6015  25.6016  26.4105  26.4106
    28.8711  28.8712  29.6321  29.6321  30.7001  30.7002  31.1455  31.1455
    31.9807  31.9808

     occupation numbers 
     1.0000   1.0000   1.0000   1.0000   1.0000   1.0000   1.0000   1.0000
     1.0000   1.0000   0.0000   0.0000   0.0000   0.0000   0.0000   0.0000
     0.0000   0.0000   0.0000   0.0000   0.0000   0.0000   0.0000   0.0000
     0.0000   0.0000   0.0000   0.0000   0.0000   0.0000   0.0000   0.0000
     0.0000   0.0000   0.0000   0.0000   0.0000   0.0000   0.0000   0.0000
     0.0000   0.0000   0.0000   0.0000   0.0000   0.0000   0.0000   0.0000
     0.0000   0.0000

          k = 0.4000 0.0000 0.0000 (  2430 PWs)   bands (ev):

    -7.3871  -5.2755  -4.6056  -2.4797   0.5740   0.9450   2.8562   3.2313
     3.4793   4.5740   7.0846   7.1842   7.4977   8.8262   8.8501  10.4172
    12.5181  13.5995  15.1088  15.8751  16.0435  16.6109  18.0438  18.2951
    18.6481  19.0457  19.3619  20.5800  21.3398  21.7970  21.8761  23.1415
    23.2317  24.0784  24.3599  26.2900  26.4506  26.7967  27.1026  28.0306
    28.1129  28.2516  28.5139  29.2875  29.3675  30.0579  30.1868  31.5678
    31.6779  32.4016

     occupation numbers 
     1.0000   1.0000   1.0000   1.0000   1.0000   1.0000   1.0000   1.0000
     1.0000   1.0000   0.0000   0.0000   0.0000   0.0000   0.0000   0.0000
     0.0000   0.0000   0.0000   0.0000   0.0000   0.0000   0.0000   0.0000
     0.0000   0.0000   0.0000   0.0000   0.0000   0.0000   0.0000   0.0000
     0.0000   0.0000   0.0000   0.0000   0.0000   0.0000   0.0000   0.0000
     0.0000   0.0000   0.0000   0.0000   0.0000   0.0000   0.0000   0.0000
     0.0000   0.0000

          k = 0.4000 0.0000 0.1210 (  2447 PWs)   bands (ev):

    -7.2659  -5.4560  -4.4270  -2.5897   0.3415   0.9322   2.5241   2.8678
     3.5659   4.6717   7.2507   7.5494   8.1920   8.5095  10.0823  10.4341
    12.7720  13.0608  15.0481  15.7283  16.2944  16.6913  17.3008  17.6497
    18.2672  18.9548  18.9861  20.3323  21.5483  21.6350  22.3730  22.7392
    23.0888  24.1938  24.2851  25.1241  26.1613  27.1198  27.1462  27.9906
    28.0353  28.2688  29.1248  29.3298  29.7711  31.2206  31.3882  31.5288
    31.8770  32.0325

     occupation numbers 
     1.0000   1.0000   1.0000   1.0000   1.0000   1.0000   1.0000   1.0000
     1.0000   1.0000   0.0000   0.0000   0.0000   0.0000   0.0000   0.0000
     0.0000   0.0000   0.0000   0.0000   0.0000   0.0000   0.0000   0.0000
     0.0000   0.0000   0.0000   0.0000   0.0000   0.0000   0.0000   0.0000
     0.0000   0.0000   0.0000   0.0000   0.0000   0.0000   0.0000   0.0000
     0.0000   0.0000   0.0000   0.0000   0.0000   0.0000   0.0000   0.0000
     0.0000   0.0000

          k = 0.4000 0.0000 0.2421 (  2436 PWs)   bands (ev):

    -6.9217  -5.8821  -4.0113  -2.9401   0.1839   0.8776   1.7152   2.3926
     3.6633   4.5959   7.9071   8.6333   8.8110   9.5093  10.7692  11.6323
    12.3425  13.0794  14.3793  14.6412  15.7817  16.3734  16.6950  17.6782
    17.8464  18.1068  19.2824  19.7123  20.4745  20.5434  23.0907  23.5250
    23.6276  24.2998  24.4769  24.5484  25.4357  26.2100  26.9305  27.9136
    28.0929  28.9674  29.3350  29.5984  30.3181  31.0146  31.6238  31.9743
    32.9971  33.0396

     occupation numbers 
     1.0000   1.0000   1.0000   1.0000   1.0000   1.0000   1.0000   1.0000
     1.0000   1.0000   0.0000   0.0000   0.0000   0.0000   0.0000   0.0000
     0.0000   0.0000   0.0000   0.0000   0.0000   0.0000   0.0000   0.0000
     0.0000   0.0000   0.0000   0.0000   0.0000   0.0000   0.0000   0.0000
     0.0000   0.0000   0.0000   0.0000   0.0000   0.0000   0.0000   0.0000
     0.0000   0.0000   0.0000   0.0000   0.0000   0.0000   0.0000   0.0000
     0.0000   0.0000

          k = 0.4000 0.0000-0.3631 (  2448 PWs)   bands (ev):

    -6.4202  -6.4201  -3.4704  -3.4704   0.4625   0.4625   1.7923   1.7923
     4.0789   4.0790   8.9723   8.9725   9.4155   9.4156  11.7633  11.7633
    12.6612  12.6613  14.0506  14.0506  15.3000  15.3001  17.1927  17.1928
    17.8296  17.8297  19.1916  19.1917  20.9274  20.9275  22.3467  22.3467
    24.2288  24.2289  24.8346  24.8346  26.0165  26.0165  27.2947  27.2947
    28.6540  28.6541  29.6326  29.6326  30.0862  30.0863  31.3469  31.3469
    33.4163  33.4163

     occupation numbers 
     1.0000   1.0000   1.0000   1.0000   1.0000   1.0000   1.0000   1.0000
     1.0000   1.0000   0.0000   0.0000   0.0000   0.0000   0.0000   0.0000
     0.0000   0.0000   0.0000   0.0000   0.0000   0.0000   0.0000   0.0000
     0.0000   0.0000   0.0000   0.0000   0.0000   0.0000   0.0000   0.0000
     0.0000   0.0000   0.0000   0.0000   0.0000   0.0000   0.0000   0.0000
     0.0000   0.0000   0.0000   0.0000   0.0000   0.0000   0.0000   0.0000
     0.0000   0.0000

          k = 0.0000 0.2344 0.0000 (  2460 PWs)   bands (ev):

    -9.1495  -6.7768  -3.2528   0.3068   1.0041   1.0835   2.4095   4.1002
     4.5276   6.2162   6.6443   7.3160   8.5257   9.1442  11.1809  11.9468
    12.0584  12.2942  13.6152  13.6334  15.1984  15.3847  16.9690  17.0334
    17.6787  18.5262  19.3524  20.1668  20.1924  20.7233  21.0659  22.5123
    22.7487  23.7756  24.2064  24.2696  25.1330  26.5343  27.0304  27.0389
    27.1081  28.4719  29.2257  30.2393  30.8261  31.0134  31.4456  31.5547
    31.6187  32.1608

     occupation numbers 
     1.0000   1.0000   1.0000   1.0000   1.0000   1.0000   1.0000   1.0000
     1.0000   1.0000   0.0000   0.0000   0.0000   0.0000   0.0000   0.0000
     0.0000   0.0000   0.0000   0.0000   0.0000   0.0000   0.0000   0.0000
     0.0000   0.0000   0.0000   0.0000   0.0000   0.0000   0.0000   0.0000
     0.0000   0.0000   0.0000   0.0000   0.0000   0.0000   0.0000   0.0000
     0.0000   0.0000   0.0000   0.0000   0.0000   0.0000   0.0000   0.0000
     0.0000   0.0000

          k = 0.0000 0.2344 0.1210 (  2464 PWs)   bands (ev):

    -9.0121  -6.9257  -3.3765  -0.6322   1.4859   1.9155   2.5183   3.9987
     4.9675   5.4292   7.2575   7.4901   8.2066   9.0626  10.6174  11.2844
    11.8144  12.9103  14.1148  14.1679  14.6227  15.8071  17.1381  17.6430
    18.3478  18.5337  18.6467  19.1640  19.8847  20.9632  21.1516  21.7254
    22.5939  23.2315  24.2864  25.5996  25.9410  25.9443  26.8686  27.1318
    27.5975  28.8288  29.0159  29.2228  29.6925  30.1952  30.3845  31.3118
    31.9382  32.5112

     occupation numbers 
     1.0000   1.0000   1.0000   1.0000   1.0000   1.0000   1.0000   1.0000
     1.0000   1.0000   0.0000   0.0000   0.0000   0.0000   0.0000   0.0000
     0.0000   0.0000   0.0000   0.0000   0.0000   0.0000   0.0000   0.0000
     0.0000   0.0000   0.0000   0.0000   0.0000   0.0000   0.0000   0.0000
     0.0000   0.0000   0.0000   0.0000   0.0000   0.0000   0.0000   0.0000
     0.0000   0.0000   0.0000   0.0000   0.0000   0.0000   0.0000   0.0000
     0.0000   0.0000

          k = 0.0000 0.2344 0.2421 (  2443 PWs)   bands (ev):

    -8.6172  -7.3868  -3.3273  -1.8344   2.4557   2.8239   3.1042   3.6960
     4.3845   5.4750   7.5914   7.7423   8.3199   9.0753   9.6843  10.2637
    12.4323  12.5737  13.5285  14.9026  15.5378  16.2107  16.7955  17.7763
    17.9203  18.4987  18.9745  19.5536  19.8456  20.5947  21.2625  22.3878
    23.0600  23.1155  24.1443  24.2830  25.3145  25.8085  25.8777  26.6610
    26.9846  28.1972  28.4192  29.0937  29.5245  30.4064  30.6502  31.1850
    31.8419  32.2011

     occupation numbers 
     1.0000   1.0000   1.0000   1.0000   1.0000   1.0000   1.0000   1.0000
     1.0000   1.0000   0.0000   0.0000   0.0000   0.0000   0.0000   0.0000
     0.0000   0.0000   0.0000   0.0000   0.0000   0.0000   0.0000   0.0000
     0.0000   0.0000   0.0000   0.0000   0.0000   0.0000   0.0000   0.0000
     0.0000   0.0000   0.0000   0.0000   0.0000   0.0000   0.0000   0.0000
     0.0000   0.0000   0.0000   0.0000   0.0000   0.0000   0.0000   0.0000
     0.0000   0.0000

          k = 0.0000 0.2344-0.3631 (  2454 PWs)   bands (ev):

    -8.0275  -8.0274  -2.7880  -2.7880   3.2575   3.2576   3.3546   3.3547
     4.5824   4.5824   7.8562   7.8562   9.0561   9.0561   9.4710   9.4710
    12.2106  12.2107  14.3793  14.3793  15.8519  15.8521  16.8593  16.8594
    18.9852  18.9853  19.1532  19.1533  20.6838  20.6838  22.3747  22.3748
    22.8901  22.8902  23.4685  23.4686  25.1555  25.1555  25.9398  25.9400
    26.7730  26.7731  28.9438  28.9439  29.4119  29.4120  31.0578  31.0579
    33.1454  33.1454

     occupation numbers 
     1.0000   1.0000   1.0000   1.0000   1.0000   1.0000   1.0000   1.0000
     1.0000   1.0000   0.0000   0.0000   0.0000   0.0000   0.0000   0.0000
     0.0000   0.0000   0.0000   0.0000   0.0000   0.0000   0.0000   0.0000
     0.0000   0.0000   0.0000   0.0000   0.0000   0.0000   0.0000   0.0000
     0.0000   0.0000   0.0000   0.0000   0.0000   0.0000   0.0000   0.0000
     0.0000   0.0000   0.0000   0.0000   0.0000   0.0000   0.0000   0.0000
     0.0000   0.0000

          k = 0.8000 0.0000 0.0000 (  2452 PWs)   bands (ev):

    -8.6680  -6.3045  -3.6042   0.3407   0.7266   0.8282   1.4132   2.6692
     4.7793   5.8165   6.8746   7.4112   9.8822  10.1369  10.3285  11.5375
    11.6003  12.0716  12.9226  13.3171  13.4127  16.4868  16.7436  18.0145
    18.5918  19.0477  19.3186  21.7292  22.0139  22.3616  22.6661  22.8066
    23.4753  23.5767  24.8183  24.8628  24.9619  25.9266  26.4413  26.8895
    27.4705  27.5439  28.2367  28.4782  29.6131  30.3561  31.3551  31.4205
    31.4364  32.3659

     occupation numbers 
     1.0000   1.0000   1.0000   1.0000   1.0000   1.0000   1.0000   1.0000
     1.0000   1.0000   0.0000   0.0000   0.0000   0.0000   0.0000   0.0000
     0.0000   0.0000   0.0000   0.0000   0.0000   0.0000   0.0000   0.0000
     0.0000   0.0000   0.0000   0.0000   0.0000   0.0000   0.0000   0.0000
     0.0000   0.0000   0.0000   0.0000   0.0000   0.0000   0.0000   0.0000
     0.0000   0.0000   0.0000   0.0000   0.0000   0.0000   0.0000   0.0000
     0.0000   0.0000

          k = 0.8000 0.0000 0.1210 (  2447 PWs)   bands (ev):

    -8.5338  -6.4653  -3.5698  -0.5871   0.4686   1.3319   2.3274   2.5861
     4.8676   5.3854   7.2814   7.7481   9.3211  10.2468  10.5545  10.8502
    11.2877  12.4297  13.1411  14.1026  14.2422  15.0221  17.4471  17.4659
    18.2672  19.3489  20.3527  21.5159  21.6331  22.0524  22.1934  22.8577
    22.9932  23.2084  23.7478  24.0136  25.5268  25.9546  26.2144  27.3488
    27.3942  28.2192  28.7993  29.2468  29.3759  30.4726  30.9351  31.2489
    32.2445  32.6007

     occupation numbers 
     1.0000   1.0000   1.0000   1.0000   1.0000   1.0000   1.0000   1.0000
     1.0000   1.0000   0.0000   0.0000   0.0000   0.0000   0.0000   0.0000
     0.0000   0.0000   0.0000   0.0000   0.0000   0.0000   0.0000   0.0000
     0.0000   0.0000   0.0000   0.0000   0.0000   0.0000   0.0000   0.0000
     0.0000   0.0000   0.0000   0.0000   0.0000   0.0000   0.0000   0.0000
     0.0000   0.0000   0.0000   0.0000   0.0000   0.0000   0.0000   0.0000
     0.0000   0.0000

          k = 0.8000 0.0000 0.2421 (  2442 PWs)   bands (ev):

    -8.1482  -6.9387  -3.3040  -1.7140   0.4741   1.3387   2.8544   3.5682
     4.6858   4.9163   7.9642   8.5819   8.7212   9.6236  10.3450  10.9042
    11.2963  12.5809  13.8313  14.0212  14.4756  15.6710  16.2252  18.1173
    18.2641  19.4602  20.3809  20.8959  20.9092  21.3000  22.0707  22.2166
    23.0228  23.6703  23.8082  24.0781  24.4705  25.2495  26.6323  27.0167
    27.3308  28.0096  28.4269  29.5029  29.7129  30.1614  30.4185  31.1052
    32.2172  32.5036

     occupation numbers 
     1.0000   1.0000   1.0000   1.0000   1.0000   1.0000   1.0000   1.0000
     1.0000   1.0000   0.0000   0.0000   0.0000   0.0000   0.0000   0.0000
     0.0000   0.0000   0.0000   0.0000   0.0000   0.0000   0.0000   0.0000
     0.0000   0.0000   0.0000   0.0000   0.0000   0.0000   0.0000   0.0000
     0.0000   0.0000   0.0000   0.0000   0.0000   0.0000   0.0000   0.0000
     0.0000   0.0000   0.0000   0.0000   0.0000   0.0000   0.0000   0.0000
     0.0000   0.0000

          k = 0.8000 0.0000-0.3631 (  2446 PWs)   bands (ev):

    -7.5718  -7.5717  -2.6668  -2.6668   0.8581   0.8582   3.5225   3.5226
     4.7825   4.7825   8.2861   8.2861   9.1770   9.1770  10.7594  10.7595
    11.9133  11.9134  13.3782  13.3783  15.6484  15.6485  17.5173  17.5174
    18.5334  18.5335  19.9345  19.9345  21.0320  21.0321  22.4125  22.4125
    23.3854  23.3854  24.2138  24.2138  24.8315  24.8315  26.5660  26.5660
    27.7465  27.7466  28.0264  28.0265  29.4991  29.4991  30.6051  30.6052
    32.5073  32.5074

     occupation numbers 
     1.0000   1.0000   1.0000   1.0000   1.0000   1.0000   1.0000   1.0000
     1.0000   1.0000   0.0000   0.0000   0.0000   0.0000   0.0000   0.0000
     0.0000   0.0000   0.0000   0.0000   0.0000   0.0000   0.0000   0.0000
     0.0000   0.0000   0.0000   0.0000   0.0000   0.0000   0.0000   0.0000
     0.0000   0.0000   0.0000   0.0000   0.0000   0.0000   0.0000   0.0000
     0.0000   0.0000   0.0000   0.0000   0.0000   0.0000   0.0000   0.0000
     0.0000   0.0000

          k = 0.2000 0.0586 0.0000 (  2448 PWs)   bands (ev):

    -8.7555  -6.0875  -3.6207   0.2264   0.3358   0.8698   1.9045   2.9020
     3.8943   5.3711   7.3568   7.7101   9.6420   9.8386  10.3894  11.1798
    11.2928  12.8780  13.6935  14.4057  14.9858  16.0281  17.1714  18.0429
    18.3421  18.6637  19.3123  20.0078  20.5608  20.6177  21.8467  22.3726
    22.8786  23.5140  24.6113  24.6222  25.3028  26.1818  26.3977  27.0858
    27.5696  29.1250  29.1363  30.1169  30.7139  30.8289  31.2134  32.0995
    32.1087  32.2482

     occupation numbers 
     1.0000   1.0000   1.0000   1.0000   1.0000   1.0000   1.0000   1.0000
     1.0000   1.0000   0.0000   0.0000   0.0000   0.0000   0.0000   0.0000
     0.0000   0.0000   0.0000   0.0000   0.0000   0.0000   0.0000   0.0000
     0.0000   0.0000   0.0000   0.0000   0.0000   0.0000   0.0000   0.0000
     0.0000   0.0000   0.0000   0.0000   0.0000   0.0000   0.0000   0.0000
     0.0000   0.0000   0.0000   0.0000   0.0000   0.0000   0.0000   0.0000
     0.0000   0.0000

          k = 0.2000-0.0586 0.1210 (  2448 PWs)   bands (ev):

    -8.6176  -6.3185  -3.5010  -0.4986   0.6217   0.8726   2.4152   2.7039
     4.2474   4.7243   7.6940   8.2123   9.0284  10.1686  10.6615  11.1383
    11.9954  12.9843  13.7562  14.2810  15.0412  15.5313  16.5260  17.4550
    18.2239  18.5553  19.3456  20.2152  20.6690  20.7771  21.4077  22.3318
    22.8663  23.8097  23.8438  25.0844  25.1349  25.8574  26.8584  27.0743
    27.9594  28.3938  29.4756  30.3214  30.6539  30.8204  31.3973  31.8886
    32.2755  32.7623

     occupation numbers 
     1.0000   1.0000   1.0000   1.0000   1.0000   1.0000   1.0000   1.0000
     1.0000   1.0000   0.0000   0.0000   0.0000   0.0000   0.0000   0.0000
     0.0000   0.0000   0.0000   0.0000   0.0000   0.0000   0.0000   0.0000
     0.0000   0.0000   0.0000   0.0000   0.0000   0.0000   0.0000   0.0000
     0.0000   0.0000   0.0000   0.0000   0.0000   0.0000   0.0000   0.0000
     0.0000   0.0000   0.0000   0.0000   0.0000   0.0000   0.0000   0.0000
     0.0000   0.0000

          k = 0.2000 0.0586-0.1210 (  2448 PWs)   bands (ev):

    -8.6176  -6.3185  -3.5010  -0.4986   0.6218   0.8725   2.4152   2.7039
     4.2474   4.7243   7.6940   8.2123   9.0284  10.1686  10.6615  11.1382
    11.9955  12.9843  13.7562  14.2810  15.0412  15.5314  16.5260  17.4550
    18.2240  18.5553  19.3455  20.2153  20.6690  20.7770  21.4076  22.3317
    22.8663  23.8097  23.8438  25.0844  25.1349  25.8574  26.8584  27.0742
    27.9594  28.3939  29.4756  30.3215  30.6538  30.8203  31.3971  31.8886
    32.2754  32.7623

     occupation numbers 
     1.0000   1.0000   1.0000   1.0000   1.0000   1.0000   1.0000   1.0000
     1.0000   1.0000   0.0000   0.0000   0.0000   0.0000   0.0000   0.0000
     0.0000   0.0000   0.0000   0.0000   0.0000   0.0000   0.0000   0.0000
     0.0000   0.0000   0.0000   0.0000   0.0000   0.0000   0.0000   0.0000
     0.0000   0.0000   0.0000   0.0000   0.0000   0.0000   0.0000   0.0000
     0.0000   0.0000   0.0000   0.0000   0.0000   0.0000   0.0000   0.0000
     0.0000   0.0000

          k =-0.2000-0.0586-0.1210 (  2448 PWs)   bands (ev):

    -8.6176  -6.3185  -3.5010  -0.4986   0.6218   0.8725   2.4151   2.7039
     4.2473   4.7243   7.6941   8.2123   9.0284  10.1686  10.6615  11.1382
    11.9954  12.9843  13.7561  14.2809  15.0412  15.5314  16.5261  17.4550
    18.2240  18.5553  19.3456  20.2152  20.6690  20.7771  21.4076  22.3318
    22.8663  23.8096  23.8438  25.0844  25.1350  25.8573  26.8584  27.0743
    27.9595  28.3938  29.4755  30.3216  30.6538  30.8203  31.3972  31.8886
    32.2755  32.7624

     occupation numbers 
     1.0000   1.0000   1.0000   1.0000   1.0000   1.0000   1.0000   1.0000
     1.0000   1.0000   0.0000   0.0000   0.0000   0.0000   0.0000   0.0000
     0.0000   0.0000   0.0000   0.0000   0.0000   0.0000   0.0000   0.0000
     0.0000   0.0000   0.0000   0.0000   0.0000   0.0000   0.0000   0.0000
     0.0000   0.0000   0.0000   0.0000   0.0000   0.0000   0.0000   0.0000
     0.0000   0.0000   0.0000   0.0000   0.0000   0.0000   0.0000   0.0000
     0.0000   0.0000

          k = 0.2000-0.0586 0.2421 (  2443 PWs)   bands (ev):

    -8.2188  -6.9078  -3.0947  -1.4640   0.6361   1.2693   2.0689   3.4819
     3.9882   4.4481   8.2031   8.7189   9.3824  10.3456  10.9295  11.0034
    12.7772  13.2879  13.8654  14.0138  14.5749  15.4018  16.0400  16.5681
    17.6345  18.4768  18.8837  19.3288  20.5195  21.1285  21.6371  22.4396
    23.0196  23.5000  23.9508  24.6956  24.7789  26.2802  27.0312  27.7764
    28.3463  28.6596  29.2100  29.3229  29.8233  30.8479  31.3825  32.1740
    32.2195  32.6426

     occupation numbers 
     1.0000   1.0000   1.0000   1.0000   1.0000   1.0000   1.0000   1.0000
     1.0000   1.0000   0.0000   0.0000   0.0000   0.0000   0.0000   0.0000
     0.0000   0.0000   0.0000   0.0000   0.0000   0.0000   0.0000   0.0000
     0.0000   0.0000   0.0000   0.0000   0.0000   0.0000   0.0000   0.0000
     0.0000   0.0000   0.0000   0.0000   0.0000   0.0000   0.0000   0.0000
     0.0000   0.0000   0.0000   0.0000   0.0000   0.0000   0.0000   0.0000
     0.0000   0.0000

          k = 0.2000 0.0586-0.2421 (  2443 PWs)   bands (ev):

    -8.2188  -6.9078  -3.0947  -1.4640   0.6361   1.2693   2.0689   3.4819
     3.9882   4.4481   8.2031   8.7190   9.3823  10.3456  10.9295  11.0033
    12.7772  13.2879  13.8654  14.0138  14.5749  15.4018  16.0401  16.5681
    17.6346  18.4768  18.8838  19.3288  20.5195  21.1285  21.6371  22.4396
    23.0195  23.5000  23.9508  24.6956  24.7789  26.2802  27.0312  27.7764
    28.3463  28.6596  29.2100  29.3229  29.8233  30.8478  31.3824  32.1741
    32.2194  32.6426

     occupation numbers 
     1.0000   1.0000   1.0000   1.0000   1.0000   1.0000   1.0000   1.0000
     1.0000   1.0000   0.0000   0.0000   0.0000   0.0000   0.0000   0.0000
     0.0000   0.0000   0.0000   0.0000   0.0000   0.0000   0.0000   0.0000
     0.0000   0.0000   0.0000   0.0000   0.0000   0.0000   0.0000   0.0000
     0.0000   0.0000   0.0000   0.0000   0.0000   0.0000   0.0000   0.0000
     0.0000   0.0000   0.0000   0.0000   0.0000   0.0000   0.0000   0.0000
     0.0000   0.0000

          k =-0.2000-0.0586-0.2421 (  2443 PWs)   bands (ev):

    -8.2188  -6.9078  -3.0947  -1.4640   0.6361   1.2693   2.0689   3.4819
     3.9882   4.4480   8.2031   8.7190   9.3823  10.3456  10.9295  11.0034
    12.7772  13.2879  13.8653  14.0139  14.5749  15.4018  16.0402  16.5680
    17.6346  18.4768  18.8837  19.3287  20.5195  21.1285  21.6371  22.4396
    23.0195  23.5000  23.9508  24.6955  24.7789  26.2802  27.0313  27.7763
    28.3463  28.6596  29.2101  29.3228  29.8232  30.8478  31.3824  32.1742
    32.2195  32.6426

     occupation numbers 
     1.0000   1.0000   1.0000   1.0000   1.0000   1.0000   1.0000   1.0000
     1.0000   1.0000   0.0000   0.0000   0.0000   0.0000   0.0000   0.0000
     0.0000   0.0000   0.0000   0.0000   0.0000   0.0000   0.0000   0.0000
     0.0000   0.0000   0.0000   0.0000   0.0000   0.0000   0.0000   0.0000
     0.0000   0.0000   0.0000   0.0000   0.0000   0.0000   0.0000   0.0000
     0.0000   0.0000   0.0000   0.0000   0.0000   0.0000   0.0000   0.0000
     0.0000   0.0000

          k = 0.2000 0.0586 0.3631 (  2432 PWs)   bands (ev):

    -7.6107  -7.6107  -2.3889  -2.3888   0.9873   0.9874   2.5945   2.5946
     4.4606   4.4607   8.6043   8.6044  10.2996  10.2997  10.8410  10.8411
    12.9981  12.9982  13.9166  13.9167  14.9352  14.9352  16.1430  16.1431
    18.3080  18.3081  18.5456  18.5457  20.2958  20.2958  22.4402  22.4403
    22.7381  22.7382  24.6750  24.6751  26.1360  26.1361  27.1284  27.1285
    28.6742  28.6742  29.0614  29.0615  30.0390  30.0391  31.3996  31.3997
    32.4854  32.4854

     occupation numbers 
     1.0000   1.0000   1.0000   1.0000   1.0000   1.0000   1.0000   1.0000
     1.0000   1.0000   0.0000   0.0000   0.0000   0.0000   0.0000   0.0000
     0.0000   0.0000   0.0000   0.0000   0.0000   0.0000   0.0000   0.0000
     0.0000   0.0000   0.0000   0.0000   0.0000   0.0000   0.0000   0.0000
     0.0000   0.0000   0.0000   0.0000   0.0000   0.0000   0.0000   0.0000
     0.0000   0.0000   0.0000   0.0000   0.0000   0.0000   0.0000   0.0000
     0.0000   0.0000

          k = 0.4000 0.1172 0.0000 (  2438 PWs)   bands (ev):

    -7.3581  -5.2970  -4.6858  -2.4107   0.5714   1.0343   2.7393   3.1488
     3.6818   4.4379   6.9614   7.3922   7.6076   8.8696   8.9157  10.3234
    12.6956  12.9212  15.0462  15.4902  16.4272  17.0663  17.3604  17.7729
    18.1818  19.2481  20.4442  21.1836  21.2196  22.4113  22.7251  23.4727
    23.5232  23.8118  24.5633  25.1203  25.7332  26.1735  27.4410  27.6410
    27.7471  27.9539  28.8467  28.8657  30.1227  30.6303  30.7036  30.9458
    31.5032  31.6832

     occupation numbers 
     1.0000   1.0000   1.0000   1.0000   1.0000   1.0000   1.0000   1.0000
     1.0000   1.0000   0.0000   0.0000   0.0000   0.0000   0.0000   0.0000
     0.0000   0.0000   0.0000   0.0000   0.0000   0.0000   0.0000   0.0000
     0.0000   0.0000   0.0000   0.0000   0.0000   0.0000   0.0000   0.0000
     0.0000   0.0000   0.0000   0.0000   0.0000   0.0000   0.0000   0.0000
     0.0000   0.0000   0.0000   0.0000   0.0000   0.0000   0.0000   0.0000
     0.0000   0.0000

          k = 0.4000-0.1172 0.1210 (  2447 PWs)   bands (ev):

    -7.2383  -5.4763  -4.4940  -2.5390   0.2839   1.0150   2.4523   2.8536
     3.7519   4.6476   7.2080   7.6453   8.1457   8.6735  10.0652  10.1741
    12.5540  12.9793  15.2608  15.5542  15.8071  16.5931  17.2304  18.1226
    18.2025  18.9317  19.4200  20.9697  21.1915  22.0740  22.8084  22.9403
    23.2186  23.9978  24.7535  25.0302  25.7117  26.2370  26.6238  27.3089
    27.8795  28.7726  29.3407  29.6796  30.1529  30.4209  30.6753  31.9241
    32.1512  32.5687

     occupation numbers 
     1.0000   1.0000   1.0000   1.0000   1.0000   1.0000   1.0000   1.0000
     1.0000   1.0000   0.0000   0.0000   0.0000   0.0000   0.0000   0.0000
     0.0000   0.0000   0.0000   0.0000   0.0000   0.0000   0.0000   0.0000
     0.0000   0.0000   0.0000   0.0000   0.0000   0.0000   0.0000   0.0000
     0.0000   0.0000   0.0000   0.0000   0.0000   0.0000   0.0000   0.0000
     0.0000   0.0000   0.0000   0.0000   0.0000   0.0000   0.0000   0.0000
     0.0000   0.0000

          k = 0.4000 0.1172-0.1210 (  2447 PWs)   bands (ev):

    -7.2383  -5.4763  -4.4940  -2.5390   0.2839   1.0150   2.4523   2.8536
     3.7520   4.6476   7.2080   7.6453   8.1457   8.6735  10.0653  10.1740
    12.5540  12.9793  15.2608  15.5542  15.8072  16.5931  17.2304  18.1226
    18.2025  18.9318  19.4200  20.9696  21.1914  22.0740  22.8083  22.9403
    23.2186  23.9978  24.7534  25.0301  25.7117  26.2370  26.6239  27.3089
    27.8795  28.7726  29.3407  29.6797  30.1528  30.4210  30.6754  31.9241
    32.1512  32.5687

     occupation numbers 
     1.0000   1.0000   1.0000   1.0000   1.0000   1.0000   1.0000   1.0000
     1.0000   1.0000   0.0000   0.0000   0.0000   0.0000   0.0000   0.0000
     0.0000   0.0000   0.0000   0.0000   0.0000   0.0000   0.0000   0.0000
     0.0000   0.0000   0.0000   0.0000   0.0000   0.0000   0.0000   0.0000
     0.0000   0.0000   0.0000   0.0000   0.0000   0.0000   0.0000   0.0000
     0.0000   0.0000   0.0000   0.0000   0.0000   0.0000   0.0000   0.0000
     0.0000   0.0000

          k =-0.4000-0.1172-0.1210 (  2447 PWs)   bands (ev):

    -7.2383  -5.4763  -4.4940  -2.5390   0.2839   1.0150   2.4523   2.8536
     3.7520   4.6476   7.2080   7.6453   8.1457   8.6734  10.0653  10.1740
    12.5540  12.9793  15.2609  15.5543  15.8071  16.5931  17.2303  18.1226
    18.2025  18.9318  19.4200  20.9696  21.1914  22.0740  22.8083  22.9403
    23.2186  23.9979  24.7535  25.0301  25.7116  26.2370  26.6239  27.3089
    27.8796  28.7726  29.3407  29.6797  30.1528  30.4210  30.6754  31.9241
    32.1512  32.5687

     occupation numbers 
     1.0000   1.0000   1.0000   1.0000   1.0000   1.0000   1.0000   1.0000
     1.0000   1.0000   0.0000   0.0000   0.0000   0.0000   0.0000   0.0000
     0.0000   0.0000   0.0000   0.0000   0.0000   0.0000   0.0000   0.0000
     0.0000   0.0000   0.0000   0.0000   0.0000   0.0000   0.0000   0.0000
     0.0000   0.0000   0.0000   0.0000   0.0000   0.0000   0.0000   0.0000
     0.0000   0.0000   0.0000   0.0000   0.0000   0.0000   0.0000   0.0000
     0.0000   0.0000

          k = 0.4000-0.1172 0.2421 (  2442 PWs)   bands (ev):

    -6.8993  -5.8871  -4.0596  -2.9297   0.0715   0.8415   1.7320   2.4883
     3.9296   4.7405   7.7831   8.4451   8.8543   9.4438  10.4052  11.6676
    12.4492  12.8176  13.9103  14.8292  16.1557  16.3614  16.8844  17.6457
    17.9350  18.5281  18.8979  19.8699  20.8443  21.2640  22.6431  23.5927
    23.8132  24.1926  24.5806  24.8273  25.3517  25.6289  26.3184  27.2503
    27.7543  28.9666  29.3587  30.0398  30.2739  31.1664  31.6657  32.3250
    32.8225  33.0084

     occupation numbers 
     1.0000   1.0000   1.0000   1.0000   1.0000   1.0000   1.0000   1.0000
     1.0000   1.0000   0.0000   0.0000   0.0000   0.0000   0.0000   0.0000
     0.0000   0.0000   0.0000   0.0000   0.0000   0.0000   0.0000   0.0000
     0.0000   0.0000   0.0000   0.0000   0.0000   0.0000   0.0000   0.0000
     0.0000   0.0000   0.0000   0.0000   0.0000   0.0000   0.0000   0.0000
     0.0000   0.0000   0.0000   0.0000   0.0000   0.0000   0.0000   0.0000
     0.0000   0.0000

          k = 0.4000 0.1172-0.2421 (  2442 PWs)   bands (ev):

    -6.8993  -5.8871  -4.0596  -2.9297   0.0715   0.8416   1.7320   2.4883
     3.9296   4.7405   7.7831   8.4451   8.8543   9.4437  10.4052  11.6676
    12.4492  12.8176  13.9103  14.8292  16.1558  16.3614  16.8844  17.6457
    17.9351  18.5281  18.8980  19.8698  20.8443  21.2639  22.6431  23.5927
    23.8131  24.1926  24.5806  24.8273  25.3515  25.6288  26.3184  27.2504
    27.7542  28.9665  29.3587  30.0399  30.2740  31.1664  31.6656  32.3250
    32.8225  33.0084

     occupation numbers 
     1.0000   1.0000   1.0000   1.0000   1.0000   1.0000   1.0000   1.0000
     1.0000   1.0000   0.0000   0.0000   0.0000   0.0000   0.0000   0.0000
     0.0000   0.0000   0.0000   0.0000   0.0000   0.0000   0.0000   0.0000
     0.0000   0.0000   0.0000   0.0000   0.0000   0.0000   0.0000   0.0000
     0.0000   0.0000   0.0000   0.0000   0.0000   0.0000   0.0000   0.0000
     0.0000   0.0000   0.0000   0.0000   0.0000   0.0000   0.0000   0.0000
     0.0000   0.0000

          k =-0.4000-0.1172-0.2421 (  2442 PWs)   bands (ev):

    -6.8993  -5.8871  -4.0596  -2.9297   0.0715   0.8416   1.7320   2.4883
     3.9296   4.7405   7.7831   8.4451   8.8542   9.4437  10.4052  11.6676
    12.4492  12.8176  13.9103  14.8292  16.1558  16.3614  16.8845  17.6456
    17.9351  18.5281  18.8979  19.8698  20.8442  21.2639  22.6431  23.5927
    23.8132  24.1926  24.5806  24.8273  25.3515  25.6289  26.3184  27.2504
    27.7541  28.9665  29.3587  30.0398  30.2739  31.1664  31.6658  32.3251
    32.8224  33.0085

     occupation numbers 
     1.0000   1.0000   1.0000   1.0000   1.0000   1.0000   1.0000   1.0000
     1.0000   1.0000   0.0000   0.0000   0.0000   0.0000   0.0000   0.0000
     0.0000   0.0000   0.0000   0.0000   0.0000   0.0000   0.0000   0.0000
     0.0000   0.0000   0.0000   0.0000   0.0000   0.0000   0.0000   0.0000
     0.0000   0.0000   0.0000   0.0000   0.0000   0.0000   0.0000   0.0000
     0.0000   0.0000   0.0000   0.0000   0.0000   0.0000   0.0000   0.0000
     0.0000   0.0000

          k = 0.4000 0.1172 0.3631 (  2442 PWs)   bands (ev):

    -6.4083  -6.4082  -3.4952  -3.4951   0.3281   0.3281   1.9097   1.9097
     4.3452   4.3452   8.5609   8.5610   9.4412   9.4413  11.8524  11.8525
    12.5191  12.5192  13.5913  13.5914  16.0595  16.0596  17.0403  17.0403
    17.9692  17.9693  19.2164  19.2164  21.3871  21.3871  22.4366  22.4367
    24.1764  24.1765  24.8602  24.8603  25.8069  25.8070  26.2447  26.2448
    28.3848  28.3848  29.6906  29.6907  30.6415  30.6416  32.0986  32.0987
    33.2508  33.2509

     occupation numbers 
     1.0000   1.0000   1.0000   1.0000   1.0000   1.0000   1.0000   1.0000
     1.0000   1.0000   0.0000   0.0000   0.0000   0.0000   0.0000   0.0000
     0.0000   0.0000   0.0000   0.0000   0.0000   0.0000   0.0000   0.0000
     0.0000   0.0000   0.0000   0.0000   0.0000   0.0000   0.0000   0.0000
     0.0000   0.0000   0.0000   0.0000   0.0000   0.0000   0.0000   0.0000
     0.0000   0.0000   0.0000   0.0000   0.0000   0.0000   0.0000   0.0000
     0.0000   0.0000

          k = 0.0000-0.1172 0.1210 (  2452 PWs)   bands (ev):

    -9.0657  -6.8300  -3.3398  -0.5621   1.2339   2.0879   2.5546   3.9473
     4.5525   4.8406   7.5202   7.9002   8.1751   9.0704  11.1588  11.3438
    12.2168  13.5092  14.0384  14.4032  14.9430  15.5494  16.5120  17.2807
    17.9787  18.2611  18.9937  19.0714  20.1775  20.5755  21.0165  21.3841
    21.5879  23.3001  24.7013  24.7905  25.8839  26.2759  26.3621  27.6055
    28.1431  28.4164  28.5044  29.4209  29.6736  30.4410  30.8553  30.8622
    31.4959  32.6960

     occupation numbers 
     1.0000   1.0000   1.0000   1.0000   1.0000   1.0000   1.0000   1.0000
     1.0000   1.0000   0.0000   0.0000   0.0000   0.0000   0.0000   0.0000
     0.0000   0.0000   0.0000   0.0000   0.0000   0.0000   0.0000   0.0000
     0.0000   0.0000   0.0000   0.0000   0.0000   0.0000   0.0000   0.0000
     0.0000   0.0000   0.0000   0.0000   0.0000   0.0000   0.0000   0.0000
     0.0000   0.0000   0.0000   0.0000   0.0000   0.0000   0.0000   0.0000
     0.0000   0.0000

          k = 0.0000-0.1172 0.2421 (  2433 PWs)   bands (ev):

    -8.6624  -7.3645  -3.1798  -1.6326   1.7748   2.8517   3.3170   3.6735
     3.6769   5.3924   7.6815   7.8251   9.0203   9.0307  10.1382  10.7494
    12.6187  12.7687  13.4837  15.3575  15.5661  16.4272  16.8180  17.2654
    17.9886  18.0596  18.3536  19.0759  19.1030  20.2542  20.8895  21.7635
[...]
     4.3540   4.6908   8.3347   8.4162   8.9539  10.0866  10.3780  10.9084
    11.8272  12.8214  13.9270  13.9996  14.3379  15.6411  16.0261  17.8349
    18.5294  18.9103  19.6936  19.8335  20.6567  21.2244  21.7269  22.3652
    23.1151  23.4482  24.1684  24.6659  25.0471  25.5110  26.0881  26.9927
    27.7085  28.3440  29.0639  29.5680  29.7135  30.3791  31.1037  31.8589
    32.1847  33.0135

     occupation numbers 
     1.0000   1.0000   1.0000   1.0000   1.0000   1.0000   1.0000   1.0000
     1.0000   1.0000   0.0000   0.0000   0.0000   0.0000   0.0000   0.0000
     0.0000   0.0000   0.0000   0.0000   0.0000   0.0000   0.0000   0.0000
     0.0000   0.0000   0.0000   0.0000   0.0000   0.0000   0.0000   0.0000
     0.0000   0.0000   0.0000   0.0000   0.0000   0.0000   0.0000   0.0000
     0.0000   0.0000   0.0000   0.0000   0.0000   0.0000   0.0000   0.0000
     0.0000   0.0000

          k =-0.2000-0.1758-0.2421 (  2437 PWs)   bands (ev):

    -8.1761  -6.9257  -3.2291  -1.6208   0.5281   1.3297   2.4879   3.6396
     4.3540   4.6907   8.3347   8.4162   8.9538  10.0866  10.3780  10.9084
    11.8272  12.8215  13.9270  13.9996  14.3378  15.6412  16.0261  17.8349
    18.5294  18.9104  19.6936  19.8335  20.6567  21.2244  21.7269  22.3653
    23.1150  23.4481  24.1684  24.6659  25.0471  25.5109  26.0881  26.9927
    27.7085  28.3440  29.0639  29.5680  29.7135  30.3792  31.1037  31.8589
    32.1847  33.0136

     occupation numbers 
     1.0000   1.0000   1.0000   1.0000   1.0000   1.0000   1.0000   1.0000
     1.0000   1.0000   0.0000   0.0000   0.0000   0.0000   0.0000   0.0000
     0.0000   0.0000   0.0000   0.0000   0.0000   0.0000   0.0000   0.0000
     0.0000   0.0000   0.0000   0.0000   0.0000   0.0000   0.0000   0.0000
     0.0000   0.0000   0.0000   0.0000   0.0000   0.0000   0.0000   0.0000
     0.0000   0.0000   0.0000   0.0000   0.0000   0.0000   0.0000   0.0000
     0.0000   0.0000

          k = 0.2000 0.1758 0.3631 (  2438 PWs)   bands (ev):

    -7.5869  -7.5868  -2.5652  -2.5652   0.8986   0.8987   3.1672   3.1672
     4.6270   4.6271   8.5729   8.5729   9.4307   9.4307  10.7933  10.7934
    12.3197  12.3197  13.5170  13.5171  15.3813  15.3814  17.1170  17.1170
    18.4039  18.4040  19.5283  19.5284  20.5190  20.5191  22.3645  22.3646
    23.2636  23.2637  24.9435  24.9436  25.1196  25.1197  25.9714  25.9715
    28.0382  28.0383  28.8359  28.8359  29.9909  29.9910  31.2367  31.2367
    32.7192  32.7193

     occupation numbers 
     1.0000   1.0000   1.0000   1.0000   1.0000   1.0000   1.0000   1.0000
     1.0000   1.0000   0.0000   0.0000   0.0000   0.0000   0.0000   0.0000
     0.0000   0.0000   0.0000   0.0000   0.0000   0.0000   0.0000   0.0000
     0.0000   0.0000   0.0000   0.0000   0.0000   0.0000   0.0000   0.0000
     0.0000   0.0000   0.0000   0.0000   0.0000   0.0000   0.0000   0.0000
     0.0000   0.0000   0.0000   0.0000   0.0000   0.0000   0.0000   0.0000
     0.0000   0.0000

          k =-0.6000-0.0586 0.0000 (  2451 PWs)   bands (ev):

    -7.3084  -5.3306  -4.8148  -2.2959   0.5621   1.1885   2.5686   3.0077
     3.9875   4.2826   7.0725   7.5590   7.5744   8.7197   8.9261  10.5867
    12.5330  13.1155  13.9281  15.5491  15.6416  16.1139  17.4861  18.6162
    19.2031  20.2766  20.7743  21.1764  21.7703  21.7740  22.7999  23.7086
    23.7677  24.2666  24.3116  25.3082  25.8432  25.9466  26.8806  27.2335
    27.6526  27.6598  28.3810  29.3560  29.8655  30.0958  30.1307  31.0759
    31.3070  32.2280

     occupation numbers 
     1.0000   1.0000   1.0000   1.0000   1.0000   1.0000   1.0000   1.0000
     1.0000   1.0000   0.0000   0.0000   0.0000   0.0000   0.0000   0.0000
     0.0000   0.0000   0.0000   0.0000   0.0000   0.0000   0.0000   0.0000
     0.0000   0.0000   0.0000   0.0000   0.0000   0.0000   0.0000   0.0000
     0.0000   0.0000   0.0000   0.0000   0.0000   0.0000   0.0000   0.0000
     0.0000   0.0000   0.0000   0.0000   0.0000   0.0000   0.0000   0.0000
     0.0000   0.0000

          k =-0.6000 0.0586 0.1210 (  2447 PWs)   bands (ev):

    -7.1913  -5.5102  -4.6007  -2.4559   0.2165   1.1130   2.3455   2.8053
     4.2027   4.5415   7.0153   7.7978   8.3196   8.5513  10.0755  10.1728
    11.8417  13.4809  14.1668  14.9307  15.8270  16.9693  17.8936  18.0648
    18.8318  19.2415  20.3254  20.6509  21.4756  21.7920  22.2097  23.1996
    23.6261  24.1670  24.7562  25.0259  25.4755  26.4870  27.0407  27.4379
    27.6824  28.3750  29.0556  29.3966  29.5935  30.0706  30.8012  31.1672
    31.6631  32.6914

     occupation numbers 
     1.0000   1.0000   1.0000   1.0000   1.0000   1.0000   1.0000   1.0000
     1.0000   1.0000   0.0000   0.0000   0.0000   0.0000   0.0000   0.0000
     0.0000   0.0000   0.0000   0.0000   0.0000   0.0000   0.0000   0.0000
     0.0000   0.0000   0.0000   0.0000   0.0000   0.0000   0.0000   0.0000
     0.0000   0.0000   0.0000   0.0000   0.0000   0.0000   0.0000   0.0000
     0.0000   0.0000   0.0000   0.0000   0.0000   0.0000   0.0000   0.0000
     0.0000   0.0000

          k =-0.6000-0.0586-0.1210 (  2447 PWs)   bands (ev):

    -7.1913  -5.5102  -4.6007  -2.4559   0.2165   1.1130   2.3455   2.8053
     4.2027   4.5415   7.0153   7.7978   8.3196   8.5513  10.0754  10.1728
    11.8418  13.4809  14.1668  14.9308  15.8270  16.9693  17.8935  18.0648
    18.8318  19.2416  20.3254  20.6509  21.4755  21.7920  22.2097  23.1996
    23.6261  24.1669  24.7562  25.0259  25.4755  26.4870  27.0407  27.4379
    27.6822  28.3751  29.0557  29.3966  29.5936  30.0706  30.8012  31.1672
    31.6631  32.6914

     occupation numbers 
     1.0000   1.0000   1.0000   1.0000   1.0000   1.0000   1.0000   1.0000
     1.0000   1.0000   0.0000   0.0000   0.0000   0.0000   0.0000   0.0000
     0.0000   0.0000   0.0000   0.0000   0.0000   0.0000   0.0000   0.0000
     0.0000   0.0000   0.0000   0.0000   0.0000   0.0000   0.0000   0.0000
     0.0000   0.0000   0.0000   0.0000   0.0000   0.0000   0.0000   0.0000
     0.0000   0.0000   0.0000   0.0000   0.0000   0.0000   0.0000   0.0000
     0.0000   0.0000

          k = 0.6000 0.0586-0.1210 (  2447 PWs)   bands (ev):

    -7.1913  -5.5102  -4.6007  -2.4559   0.2165   1.1130   2.3455   2.8053
     4.2027   4.5415   7.0153   7.7978   8.3196   8.5512  10.0755  10.1728
    11.8417  13.4808  14.1669  14.9308  15.8270  16.9693  17.8935  18.0648
    18.8319  19.2416  20.3254  20.6510  21.4755  21.7920  22.2097  23.1995
    23.6262  24.1669  24.7562  25.0259  25.4754  26.4871  27.0408  27.4379
    27.6822  28.3750  29.0557  29.3965  29.5936  30.0707  30.8011  31.1672
    31.6631  32.6915

     occupation numbers 
     1.0000   1.0000   1.0000   1.0000   1.0000   1.0000   1.0000   1.0000
     1.0000   1.0000   0.0000   0.0000   0.0000   0.0000   0.0000   0.0000
     0.0000   0.0000   0.0000   0.0000   0.0000   0.0000   0.0000   0.0000
     0.0000   0.0000   0.0000   0.0000   0.0000   0.0000   0.0000   0.0000
     0.0000   0.0000   0.0000   0.0000   0.0000   0.0000   0.0000   0.0000
     0.0000   0.0000   0.0000   0.0000   0.0000   0.0000   0.0000   0.0000
     0.0000   0.0000

          k =-0.6000 0.0586 0.2421 (  2448 PWs)   bands (ev):

    -6.8612  -5.8963  -4.1368  -2.9135  -0.0746   0.7305   1.8338   2.6264
     4.4699   4.8433   7.3416   8.6734   8.8621   9.2781  10.0956  11.2054
    12.0335  12.7175  13.5608  15.3624  16.1294  16.8958  17.0359  17.8187
    18.1978  18.8422  19.5134  19.9941  20.7339  21.7767  22.0219  23.0473
    23.6979  23.9521  24.0486  24.8860  25.3959  26.5365  26.7514  27.2757
    27.9959  28.7390  29.2839  29.7625  30.0581  30.5830  30.9140  31.0918
    32.3794  32.9194

     occupation numbers 
     1.0000   1.0000   1.0000   1.0000   1.0000   1.0000   1.0000   1.0000
     1.0000   1.0000   0.0000   0.0000   0.0000   0.0000   0.0000   0.0000
     0.0000   0.0000   0.0000   0.0000   0.0000   0.0000   0.0000   0.0000
     0.0000   0.0000   0.0000   0.0000   0.0000   0.0000   0.0000   0.0000
     0.0000   0.0000   0.0000   0.0000   0.0000   0.0000   0.0000   0.0000
     0.0000   0.0000   0.0000   0.0000   0.0000   0.0000   0.0000   0.0000
     0.0000   0.0000

          k =-0.6000-0.0586-0.2421 (  2448 PWs)   bands (ev):

    -6.8612  -5.8963  -4.1368  -2.9135  -0.0746   0.7305   1.8338   2.6264
     4.4699   4.8433   7.3416   8.6733   8.8621   9.2781  10.0956  11.2054
    12.0335  12.7175  13.5607  15.3625  16.1294  16.8958  17.0359  17.8187
    18.1978  18.8422  19.5134  19.9941  20.7339  21.7767  22.0219  23.0473
    23.6979  23.9521  24.0485  24.8860  25.3959  26.5365  26.7514  27.2756
    27.9959  28.7390  29.2839  29.7625  30.0580  30.5830  30.9141  31.0918
    32.3794  32.9195

     occupation numbers 
     1.0000   1.0000   1.0000   1.0000   1.0000   1.0000   1.0000   1.0000
     1.0000   1.0000   0.0000   0.0000   0.0000   0.0000   0.0000   0.0000
     0.0000   0.0000   0.0000   0.0000   0.0000   0.0000   0.0000   0.0000
     0.0000   0.0000   0.0000   0.0000   0.0000   0.0000   0.0000   0.0000
     0.0000   0.0000   0.0000   0.0000   0.0000   0.0000   0.0000   0.0000
     0.0000   0.0000   0.0000   0.0000   0.0000   0.0000   0.0000   0.0000
     0.0000   0.0000

          k = 0.6000 0.0586-0.2421 (  2448 PWs)   bands (ev):

    -6.8612  -5.8963  -4.1368  -2.9135  -0.0746   0.7305   1.8338   2.6264
     4.4699   4.8433   7.3416   8.6733   8.8621   9.2781  10.0956  11.2054
    12.0334  12.7175  13.5608  15.3624  16.1294  16.8957  17.0360  17.8187
    18.1979  18.8421  19.5135  19.9941  20.7339  21.7767  22.0219  23.0473
    23.6979  23.9521  24.0485  24.8859  25.3959  26.5365  26.7514  27.2757
    27.9959  28.7390  29.2839  29.7625  30.0580  30.5830  30.9141  31.0919
    32.3794  32.9194

     occupation numbers 
     1.0000   1.0000   1.0000   1.0000   1.0000   1.0000   1.0000   1.0000
     1.0000   1.0000   0.0000   0.0000   0.0000   0.0000   0.0000   0.0000
     0.0000   0.0000   0.0000   0.0000   0.0000   0.0000   0.0000   0.0000
     0.0000   0.0000   0.0000   0.0000   0.0000   0.0000   0.0000   0.0000
     0.0000   0.0000   0.0000   0.0000   0.0000   0.0000   0.0000   0.0000
     0.0000   0.0000   0.0000   0.0000   0.0000   0.0000   0.0000   0.0000
     0.0000   0.0000

          k =-0.6000-0.0586 0.3631 (  2442 PWs)   bands (ev):

    -6.3887  -6.3886  -3.5351  -3.5350   0.1396   0.1397   2.1112   2.1112
     4.7397   4.7398   8.1639   8.1640   9.4559   9.4559  11.1181  11.1182
    12.5285  12.5286  13.7752  13.7753  16.5248  16.5248  17.0848  17.0849
    18.2242  18.2243  19.9025  19.9026  20.9406  20.9407  22.9099  22.9100
    23.5861  23.5861  24.4691  24.4691  25.6015  25.6015  26.4105  26.4105
    28.8712  28.8712  29.6320  29.6321  30.7001  30.7002  31.1456  31.1456
    31.9807  31.9808

     occupation numbers 
     1.0000   1.0000   1.0000   1.0000   1.0000   1.0000   1.0000   1.0000
     1.0000   1.0000   0.0000   0.0000   0.0000   0.0000   0.0000   0.0000
     0.0000   0.0000   0.0000   0.0000   0.0000   0.0000   0.0000   0.0000
     0.0000   0.0000   0.0000   0.0000   0.0000   0.0000   0.0000   0.0000
     0.0000   0.0000   0.0000   0.0000   0.0000   0.0000   0.0000   0.0000
     0.0000   0.0000   0.0000   0.0000   0.0000   0.0000   0.0000   0.0000
     0.0000   0.0000

          k =-0.4000-0.0000 0.1210 (  2447 PWs)   bands (ev):

    -7.2659  -5.4560  -4.4270  -2.5897   0.3415   0.9322   2.5241   2.8678
     3.5659   4.6717   7.2507   7.5494   8.1920   8.5095  10.0823  10.4341
    12.7720  13.0608  15.0481  15.7283  16.2944  16.6913  17.3008  17.6497
    18.2672  18.9548  18.9861  20.3323  21.5483  21.6350  22.3730  22.7392
    23.0888  24.1938  24.2851  25.1241  26.1613  27.1198  27.1462  27.9906
    28.0353  28.2688  29.1248  29.3298  29.7711  31.2206  31.3882  31.5288
    31.8770  32.0325

     occupation numbers 
     1.0000   1.0000   1.0000   1.0000   1.0000   1.0000   1.0000   1.0000
     1.0000   1.0000   0.0000   0.0000   0.0000   0.0000   0.0000   0.0000
     0.0000   0.0000   0.0000   0.0000   0.0000   0.0000   0.0000   0.0000
     0.0000   0.0000   0.0000   0.0000   0.0000   0.0000   0.0000   0.0000
     0.0000   0.0000   0.0000   0.0000   0.0000   0.0000   0.0000   0.0000
     0.0000   0.0000   0.0000   0.0000   0.0000   0.0000   0.0000   0.0000
     0.0000   0.0000

          k =-0.4000-0.0000 0.2421 (  2436 PWs)   bands (ev):

    -6.9217  -5.8821  -4.0113  -2.9401   0.1839   0.8776   1.7152   2.3926
     3.6633   4.5959   7.9071   8.6333   8.8110   9.5093  10.7692  11.6323
    12.3425  13.0794  14.3793  14.6412  15.7817  16.3734  16.6950  17.6782
    17.8464  18.1068  19.2824  19.7123  20.4745  20.5434  23.0907  23.5250
    23.6276  24.2998  24.4769  24.5484  25.4357  26.2100  26.9305  27.9136
    28.0929  28.9674  29.3350  29.5984  30.3181  31.0146  31.6238  31.9743
    32.9971  33.0396

     occupation numbers 
     1.0000   1.0000   1.0000   1.0000   1.0000   1.0000   1.0000   1.0000
     1.0000   1.0000   0.0000   0.0000   0.0000   0.0000   0.0000   0.0000
     0.0000   0.0000   0.0000   0.0000   0.0000   0.0000   0.0000   0.0000
     0.0000   0.0000   0.0000   0.0000   0.0000   0.0000   0.0000   0.0000
     0.0000   0.0000   0.0000   0.0000   0.0000   0.0000   0.0000   0.0000
     0.0000   0.0000   0.0000   0.0000   0.0000   0.0000   0.0000   0.0000
     0.0000   0.0000

          k = 0.0000-0.2344 0.1210 (  2464 PWs)   bands (ev):

    -9.0121  -6.9257  -3.3765  -0.6322   1.4860   1.9154   2.5183   3.9987
     4.9675   5.4292   7.2575   7.4900   8.2066   9.0626  10.6173  11.2844
    11.8145  12.9104  14.1148  14.1678  14.6227  15.8071  17.1381  17.6430
    18.3479  18.5338  18.6467  19.1639  19.8846  20.9633  21.1515  21.7254
    22.5939  23.2315  24.2864  25.5996  25.9410  25.9443  26.8688  27.1317
    27.5976  28.8287  29.0160  29.2228  29.6926  30.1952  30.3844  31.3118
    31.9382  32.5113

     occupation numbers 
     1.0000   1.0000   1.0000   1.0000   1.0000   1.0000   1.0000   1.0000
     1.0000   1.0000   0.0000   0.0000   0.0000   0.0000   0.0000   0.0000
     0.0000   0.0000   0.0000   0.0000   0.0000   0.0000   0.0000   0.0000
     0.0000   0.0000   0.0000   0.0000   0.0000   0.0000   0.0000   0.0000
     0.0000   0.0000   0.0000   0.0000   0.0000   0.0000   0.0000   0.0000
     0.0000   0.0000   0.0000   0.0000   0.0000   0.0000   0.0000   0.0000
     0.0000   0.0000

          k = 0.0000-0.2344 0.2421 (  2443 PWs)   bands (ev):

    -8.6172  -7.3868  -3.3273  -1.8344   2.4557   2.8239   3.1042   3.6960
     4.3845   5.4750   7.5914   7.7423   8.3199   9.0753   9.6843  10.2637
    12.4322  12.5738  13.5285  14.9026  15.5377  16.2107  16.7955  17.7763
    17.9204  18.4986  18.9745  19.5536  19.8456  20.5948  21.2625  22.3876
    23.0601  23.1154  24.1443  24.2830  25.3146  25.8086  25.8777  26.6611
    26.9845  28.1972  28.4192  29.0938  29.5245  30.4063  30.6501  31.1850
    31.8419  32.2012

     occupation numbers 
     1.0000   1.0000   1.0000   1.0000   1.0000   1.0000   1.0000   1.0000
     1.0000   1.0000   0.0000   0.0000   0.0000   0.0000   0.0000   0.0000
     0.0000   0.0000   0.0000   0.0000   0.0000   0.0000   0.0000   0.0000
     0.0000   0.0000   0.0000   0.0000   0.0000   0.0000   0.0000   0.0000
     0.0000   0.0000   0.0000   0.0000   0.0000   0.0000   0.0000   0.0000
     0.0000   0.0000   0.0000   0.0000   0.0000   0.0000   0.0000   0.0000
     0.0000   0.0000

          k =-0.8000 0.0000 0.1210 (  2447 PWs)   bands (ev):

    -8.5338  -6.4653  -3.5698  -0.5871   0.4686   1.3319   2.3274   2.5861
     4.8676   5.3854   7.2814   7.7481   9.3211  10.2468  10.5545  10.8502
    11.2877  12.4297  13.1411  14.1026  14.2422  15.0221  17.4471  17.4659
    18.2672  19.3489  20.3527  21.5159  21.6331  22.0524  22.1934  22.8577
    22.9932  23.2084  23.7478  24.0136  25.5268  25.9546  26.2144  27.3488
    27.3942  28.2192  28.7993  29.2468  29.3759  30.4726  30.9351  31.2489
    32.2445  32.6007

     occupation numbers 
     1.0000   1.0000   1.0000   1.0000   1.0000   1.0000   1.0000   1.0000
     1.0000   1.0000   0.0000   0.0000   0.0000   0.0000   0.0000   0.0000
     0.0000   0.0000   0.0000   0.0000   0.0000   0.0000   0.0000   0.0000
     0.0000   0.0000   0.0000   0.0000   0.0000   0.0000   0.0000   0.0000
     0.0000   0.0000   0.0000   0.0000   0.0000   0.0000   0.0000   0.0000
     0.0000   0.0000   0.0000   0.0000   0.0000   0.0000   0.0000   0.0000
     0.0000   0.0000

          k =-0.8000 0.0000 0.2421 (  2442 PWs)   bands (ev):

    -8.1482  -6.9387  -3.3040  -1.7140   0.4741   1.3387   2.8544   3.5682
     4.6858   4.9163   7.9642   8.5819   8.7212   9.6236  10.3450  10.9042
    11.2963  12.5809  13.8313  14.0212  14.4756  15.6710  16.2252  18.1173
    18.2641  19.4602  20.3809  20.8959  20.9092  21.3000  22.0707  22.2166
    23.0228  23.6703  23.8082  24.0781  24.4705  25.2495  26.6323  27.0167
    27.3308  28.0096  28.4269  29.5029  29.7129  30.1614  30.4185  31.1052
    32.2172  32.5036

     occupation numbers 
     1.0000   1.0000   1.0000   1.0000   1.0000   1.0000   1.0000   1.0000
     1.0000   1.0000   0.0000   0.0000   0.0000   0.0000   0.0000   0.0000
     0.0000   0.0000   0.0000   0.0000   0.0000   0.0000   0.0000   0.0000
     0.0000   0.0000   0.0000   0.0000   0.0000   0.0000   0.0000   0.0000
     0.0000   0.0000   0.0000   0.0000   0.0000   0.0000   0.0000   0.0000
     0.0000   0.0000   0.0000   0.0000   0.0000   0.0000   0.0000   0.0000
     0.0000   0.0000

     highest occupied, lowest unoccupied level (ev):     6.2162    6.6443

     Writing output data file run_output/BP.save/

     init_run     :      0.39s CPU      0.97s WALL (       1 calls)
     electrons    :     22.14s CPU     22.28s WALL (       1 calls)

     Called by init_run:
     wfcinit      :      0.00s CPU      0.00s WALL (       1 calls)
     wfcinit:atom :      0.00s CPU      0.00s WALL (      76 calls)
     wfcinit:wfcr :      0.97s CPU      0.99s WALL (      76 calls)
     potinit      :      0.05s CPU      0.05s WALL (       1 calls)
     hinit0       :      0.07s CPU      0.64s WALL (       1 calls)

     Called by electrons:
     c_bands      :     22.14s CPU     22.27s WALL (       1 calls)
     v_of_rho     :      0.03s CPU      0.04s WALL (       1 calls)
     v_h          :      0.00s CPU      0.00s WALL (       1 calls)
     v_xc         :      0.03s CPU      0.04s WALL (       1 calls)

     Called by c_bands:
     init_us_2    :      0.00s CPU      0.00s WALL (      76 calls)
     cegterg      :     21.14s CPU     21.25s WALL (      76 calls)

     Called by sum_band:

     Called by *egterg:
     cdiaghg      :     14.44s CPU     14.43s WALL (     912 calls)
     cegterg:over :      0.97s CPU      0.98s WALL (     836 calls)
     cegterg:upda :      0.41s CPU      0.38s WALL (     836 calls)
     cegterg:last :      0.19s CPU      0.19s WALL (     152 calls)
     h_psi        :      5.80s CPU      5.92s WALL (     988 calls)
     g_psi        :      0.01s CPU      0.01s WALL (     836 calls)

     Called by h_psi:
     h_psi:calbec :      0.24s CPU      0.22s WALL (     988 calls)
     vloc_psi     :      5.50s CPU      5.63s WALL (     988 calls)
     add_vuspsi   :      0.05s CPU      0.06s WALL (     988 calls)

     General routines
     calbec       :      0.24s CPU      0.22s WALL (     988 calls)
     fft          :      0.08s CPU      0.65s WALL (      10 calls)
     fftw         :      5.39s CPU      5.50s WALL (   58820 calls)
     davcio       :      0.00s CPU      0.05s WALL (     152 calls)

     Parallel routines
     fft_scatt_xy :      0.17s CPU      0.19s WALL (   58830 calls)
     fft_scatt_yz :      3.73s CPU      4.30s WALL (   58830 calls)

     PWSCF        :     31.81s CPU     34.77s WALL


   This run was terminated on:  21:44:35  11May2021            

=------------------------------------------------------------------------------=
   JOB DONE.
=------------------------------------------------------------------------------=
