
     Program PWSCF v.6.7MaX starts on 11May2021 at 18:51: 0 

     This program is part of the open-source Quantum ESPRESSO suite
     for quantum simulation of materials; please cite
         "P. Giannozzi et al., J. Phys.:Condens. Matter 21 395502 (2009);
         "P. Giannozzi et al., J. Phys.:Condens. Matter 29 465901 (2017);
          URL http://www.quantum-espresso.org", 
     in publications or presentations arising from this work. More details at
     http://www.quantum-espresso.org/quote

     Parallel version (MPI), running on    20 processors

     MPI processes distributed on     1 nodes
     R & G space division:  proc/nbgrp/npool/nimage =      20
     Waiting for input...
     Reading input from standard input

     Current dimensions of program PWSCF are:
     Max number of different atomic species (ntypx) = 10
     Max number of k-points (npk) =  40000
     Max angular momentum in pseudopotentials (lmaxx) =  3

     Subspace diagonalization in iterative solution of the eigenvalue problem:
     a serial algorithm will be used


     Parallelization info
     --------------------
     sticks:   dense  smooth     PW     G-vecs:    dense   smooth      PW
     Min          42      42     13                  980      980     179
     Max          43      43     14                  985      985     182
     Sum         851     851    279                19641    19641    3617



     bravais-lattice index     =            9
     lattice parameter (alat)  =       6.2450  a.u.
     unit-cell volume          =     572.3500 (a.u.)^3
     number of atoms/cell      =            4
     number of atomic types    =            1
     number of electrons       =        20.00
     number of Kohn-Sham states=           10
     kinetic-energy cutoff     =      40.0000  Ry
     charge density cutoff     =     160.0000  Ry
     scf convergence threshold =      1.0E-10
     mixing beta               =       0.7000
     number of iterations used =            8  plain     mixing
     Exchange-correlation= SLA-PW-PBX-PBC
                           (   1   4   3   4   0   0   0)

     celldm(1)=   6.244951  celldm(2)=   3.413047  celldm(3)=   1.377090
     celldm(4)=   0.000000  celldm(5)=   0.000000  celldm(6)=   0.000000

     crystal axes: (cart. coord. in units of alat)
               a(1) = (   0.500000   1.706524   0.000000 )  
               a(2) = (  -0.500000   1.706524   0.000000 )  
               a(3) = (   0.000000   0.000000   1.377090 )  

     reciprocal axes: (cart. coord. in units 2 pi/alat)
               b(1) = (  1.000000  0.292993 -0.000000 )  
               b(2) = ( -1.000000  0.292993  0.000000 )  
               b(3) = (  0.000000 -0.000000  0.726169 )  


     PseudoPot. # 1 for P  read from file:
     PPs/P.pbe-hgh.UPF
     MD5 check sum: 2fd0d529aa5ddd1edad02a885f5e7817
     Pseudo is Norm-conserving, Zval =  5.0
     Generated in analytical, separable form
     Using radial grid of 1147 points,  3 beta functions with: 
                l(1) =   0
                l(2) =   0
                l(3) =   1

     atomic species   valence    mass     pseudopotential
        P              5.00    30.97000     P ( 1.00)

     No symmetry found


                                    s                        frac. trans.

      isym =  1     identity                                     

 cryst.   s( 1) = (     1          0          0      )
                  (     0          1          0      )
                  (     0          0          1      )

 cart.    s( 1) = (  1.0000000  0.0000000  0.0000000 )
                  (  0.0000000  1.0000000  0.0000000 )
                  (  0.0000000  0.0000000  1.0000000 )


     point group C_1 (1)    
     there are  1 classes
     the character table:

       E    
A      1.00

     the symmetry operations in each class and the name of the first element:

     E        1
          identity                                               

   Cartesian axes

     site n.     atom                  positions (alat units)
         1           P   tau(   1) = (   0.5012297   0.6703766   0.0102908  )
         2           P   tau(   2) = (   0.0012201   0.0309392   0.6988268  )
         3           P   tau(   3) = (   0.0012317   0.6704236   0.9377720  )
         4           P   tau(   4) = (   0.5012181   0.0308933   1.6263080  )

   Crystallographic axes

     site n.     atom                  positions (cryst. coord.)
         1           P   tau(   1) = (  0.6976455 -0.3048138  0.0074729  )
         2           P   tau(   2) = (  0.0102851  0.0078449  0.5074665  )
         3           P   tau(   3) = (  0.1976613  0.1951980  0.6809811  )
         4           P   tau(   4) = (  0.5102696 -0.4921666  1.1809748  )

     number of k points=    76
                       cart. coord. in units 2pi/alat
        k(    1) = (   0.0000000   0.0000000   0.0000000), wk =   0.0133333
        k(    2) = (   0.0000000   0.0000000   0.1210282), wk =   0.0266667
        k(    3) = (   0.0000000   0.0000000   0.2420564), wk =   0.0266667
        k(    4) = (   0.0000000   0.0000000  -0.3630846), wk =   0.0133333
        k(    5) = (  -0.2000000   0.0585987   0.0000000), wk =   0.0266667
        k(    6) = (  -0.2000000   0.0585987   0.1210282), wk =   0.0266667
        k(    7) = (  -0.2000000   0.0585987   0.2420564), wk =   0.0266667
        k(    8) = (  -0.2000000   0.0585987  -0.3630846), wk =   0.0266667
        k(    9) = (  -0.4000000   0.1171973   0.0000000), wk =   0.0266667
        k(   10) = (  -0.4000000   0.1171973   0.1210282), wk =   0.0266667
        k(   11) = (  -0.4000000   0.1171973   0.2420564), wk =   0.0266667
        k(   12) = (  -0.4000000   0.1171973  -0.3630846), wk =   0.0266667
        k(   13) = (   0.0000000   0.1171973   0.0000000), wk =   0.0266667
        k(   14) = (   0.0000000   0.1171973   0.1210282), wk =   0.0266667
        k(   15) = (   0.0000000   0.1171973   0.2420564), wk =   0.0266667
        k(   16) = (   0.0000000   0.1171973  -0.3630846), wk =   0.0266667
        k(   17) = (  -0.2000000   0.1757960   0.0000000), wk =   0.0266667
        k(   18) = (  -0.2000000   0.1757960   0.1210282), wk =   0.0266667
        k(   19) = (  -0.2000000   0.1757960   0.2420564), wk =   0.0266667
        k(   20) = (  -0.2000000   0.1757960  -0.3630846), wk =   0.0266667
        k(   21) = (   0.6000000  -0.0585987   0.0000000), wk =   0.0266667
        k(   22) = (   0.6000000  -0.0585987   0.1210282), wk =   0.0266667
        k(   23) = (   0.6000000  -0.0585987   0.2420564), wk =   0.0266667
        k(   24) = (   0.6000000  -0.0585987  -0.3630846), wk =   0.0266667
        k(   25) = (   0.4000000   0.0000000   0.0000000), wk =   0.0266667
        k(   26) = (   0.4000000   0.0000000   0.1210282), wk =   0.0266667
        k(   27) = (   0.4000000   0.0000000   0.2420564), wk =   0.0266667
        k(   28) = (   0.4000000   0.0000000  -0.3630846), wk =   0.0266667
        k(   29) = (   0.0000000   0.2343946   0.0000000), wk =   0.0266667
        k(   30) = (   0.0000000   0.2343946   0.1210282), wk =   0.0266667
        k(   31) = (   0.0000000   0.2343946   0.2420564), wk =   0.0266667
        k(   32) = (   0.0000000   0.2343946  -0.3630846), wk =   0.0266667
        k(   33) = (   0.8000000   0.0000000   0.0000000), wk =   0.0266667
        k(   34) = (   0.8000000   0.0000000   0.1210282), wk =   0.0266667
        k(   35) = (   0.8000000   0.0000000   0.2420564), wk =   0.0266667
        k(   36) = (   0.8000000   0.0000000  -0.3630846), wk =   0.0266667
        k(   37) = (   0.2000000   0.0585987   0.0000000), wk =   0.0266667
        k(   38) = (   0.2000000  -0.0585987   0.1210282), wk =   0.0266667
        k(   39) = (   0.2000000   0.0585987  -0.1210282), wk =   0.0266667
        k(   40) = (  -0.2000000  -0.0585987  -0.1210282), wk =   0.0266667
        k(   41) = (   0.2000000  -0.0585987   0.2420564), wk =   0.0266667
        k(   42) = (   0.2000000   0.0585987  -0.2420564), wk =   0.0266667
        k(   43) = (  -0.2000000  -0.0585987  -0.2420564), wk =   0.0266667
        k(   44) = (   0.2000000   0.0585987   0.3630846), wk =   0.0266667
        k(   45) = (   0.4000000   0.1171973   0.0000000), wk =   0.0266667
        k(   46) = (   0.4000000  -0.1171973   0.1210282), wk =   0.0266667
        k(   47) = (   0.4000000   0.1171973  -0.1210282), wk =   0.0266667
        k(   48) = (  -0.4000000  -0.1171973  -0.1210282), wk =   0.0266667
        k(   49) = (   0.4000000  -0.1171973   0.2420564), wk =   0.0266667
        k(   50) = (   0.4000000   0.1171973  -0.2420564), wk =   0.0266667
        k(   51) = (  -0.4000000  -0.1171973  -0.2420564), wk =   0.0266667
        k(   52) = (   0.4000000   0.1171973   0.3630846), wk =   0.0266667
        k(   53) = (   0.0000000  -0.1171973   0.1210282), wk =   0.0266667
        k(   54) = (   0.0000000  -0.1171973   0.2420564), wk =   0.0266667
        k(   55) = (   0.2000000   0.1757960   0.0000000), wk =   0.0266667
        k(   56) = (   0.2000000  -0.1757960   0.1210282), wk =   0.0266667
        k(   57) = (   0.2000000   0.1757960  -0.1210282), wk =   0.0266667
        k(   58) = (  -0.2000000  -0.1757960  -0.1210282), wk =   0.0266667
        k(   59) = (   0.2000000  -0.1757960   0.2420564), wk =   0.0266667
        k(   60) = (   0.2000000   0.1757960  -0.2420564), wk =   0.0266667
        k(   61) = (  -0.2000000  -0.1757960  -0.2420564), wk =   0.0266667
        k(   62) = (   0.2000000   0.1757960   0.3630846), wk =   0.0266667
        k(   63) = (  -0.6000000  -0.0585987   0.0000000), wk =   0.0266667
        k(   64) = (  -0.6000000   0.0585987   0.1210282), wk =   0.0266667
        k(   65) = (  -0.6000000  -0.0585987  -0.1210282), wk =   0.0266667
        k(   66) = (   0.6000000   0.0585987  -0.1210282), wk =   0.0266667
        k(   67) = (  -0.6000000   0.0585987   0.2420564), wk =   0.0266667
        k(   68) = (  -0.6000000  -0.0585987  -0.2420564), wk =   0.0266667
        k(   69) = (   0.6000000   0.0585987  -0.2420564), wk =   0.0266667
        k(   70) = (  -0.6000000  -0.0585987   0.3630846), wk =   0.0266667
        k(   71) = (  -0.4000000  -0.0000000   0.1210282), wk =   0.0266667
        k(   72) = (  -0.4000000  -0.0000000   0.2420564), wk =   0.0266667
        k(   73) = (   0.0000000  -0.2343946   0.1210282), wk =   0.0266667
        k(   74) = (   0.0000000  -0.2343946   0.2420564), wk =   0.0266667
        k(   75) = (  -0.8000000   0.0000000   0.1210282), wk =   0.0266667
        k(   76) = (  -0.8000000   0.0000000   0.2420564), wk =   0.0266667

                       cryst. coord.
        k(    1) = (   0.0000000   0.0000000   0.0000000), wk =   0.0133333
        k(    2) = (   0.0000000   0.0000000   0.1666667), wk =   0.0266667
        k(    3) = (   0.0000000   0.0000000   0.3333333), wk =   0.0266667
        k(    4) = (   0.0000000   0.0000000  -0.5000000), wk =   0.0133333
        k(    5) = (   0.0000000   0.2000000   0.0000000), wk =   0.0266667
        k(    6) = (   0.0000000   0.2000000   0.1666667), wk =   0.0266667
        k(    7) = (   0.0000000   0.2000000   0.3333333), wk =   0.0266667
        k(    8) = (   0.0000000   0.2000000  -0.5000000), wk =   0.0266667
        k(    9) = (   0.0000000   0.4000000   0.0000000), wk =   0.0266667
        k(   10) = (   0.0000000   0.4000000   0.1666667), wk =   0.0266667
        k(   11) = (   0.0000000   0.4000000   0.3333333), wk =   0.0266667
        k(   12) = (   0.0000000   0.4000000  -0.5000000), wk =   0.0266667
        k(   13) = (   0.2000000   0.2000000   0.0000000), wk =   0.0266667
        k(   14) = (   0.2000000   0.2000000   0.1666667), wk =   0.0266667
        k(   15) = (   0.2000000   0.2000000   0.3333333), wk =   0.0266667
        k(   16) = (   0.2000000   0.2000000  -0.5000000), wk =   0.0266667
        k(   17) = (   0.2000000   0.4000000   0.0000000), wk =   0.0266667
        k(   18) = (   0.2000000   0.4000000   0.1666667), wk =   0.0266667
        k(   19) = (   0.2000000   0.4000000   0.3333333), wk =   0.0266667
        k(   20) = (   0.2000000   0.4000000  -0.5000000), wk =   0.0266667
        k(   21) = (   0.2000000  -0.4000000   0.0000000), wk =   0.0266667
        k(   22) = (   0.2000000  -0.4000000   0.1666667), wk =   0.0266667
        k(   23) = (   0.2000000  -0.4000000   0.3333333), wk =   0.0266667
        k(   24) = (   0.2000000  -0.4000000  -0.5000000), wk =   0.0266667
        k(   25) = (   0.2000000  -0.2000000   0.0000000), wk =   0.0266667
        k(   26) = (   0.2000000  -0.2000000   0.1666667), wk =   0.0266667
        k(   27) = (   0.2000000  -0.2000000   0.3333333), wk =   0.0266667
        k(   28) = (   0.2000000  -0.2000000  -0.5000000), wk =   0.0266667
        k(   29) = (   0.4000000   0.4000000   0.0000000), wk =   0.0266667
        k(   30) = (   0.4000000   0.4000000   0.1666667), wk =   0.0266667
        k(   31) = (   0.4000000   0.4000000   0.3333333), wk =   0.0266667
        k(   32) = (   0.4000000   0.4000000  -0.5000000), wk =   0.0266667
        k(   33) = (   0.4000000  -0.4000000   0.0000000), wk =   0.0266667
        k(   34) = (   0.4000000  -0.4000000   0.1666667), wk =   0.0266667
        k(   35) = (   0.4000000  -0.4000000   0.3333333), wk =   0.0266667
        k(   36) = (   0.4000000  -0.4000000  -0.5000000), wk =   0.0266667
        k(   37) = (   0.2000000   0.0000000   0.0000000), wk =   0.0266667
        k(   38) = (   0.0000000  -0.2000000   0.1666667), wk =   0.0266667
        k(   39) = (   0.2000000   0.0000000  -0.1666667), wk =   0.0266667
        k(   40) = (  -0.2000000   0.0000000  -0.1666667), wk =   0.0266667
        k(   41) = (   0.0000000  -0.2000000   0.3333333), wk =   0.0266667
        k(   42) = (   0.2000000   0.0000000  -0.3333333), wk =   0.0266667
        k(   43) = (  -0.2000000   0.0000000  -0.3333333), wk =   0.0266667
        k(   44) = (   0.2000000   0.0000000   0.5000000), wk =   0.0266667
        k(   45) = (   0.4000000   0.0000000   0.0000000), wk =   0.0266667
        k(   46) = (   0.0000000  -0.4000000   0.1666667), wk =   0.0266667
        k(   47) = (   0.4000000   0.0000000  -0.1666667), wk =   0.0266667
        k(   48) = (  -0.4000000   0.0000000  -0.1666667), wk =   0.0266667
        k(   49) = (   0.0000000  -0.4000000   0.3333333), wk =   0.0266667
        k(   50) = (   0.4000000   0.0000000  -0.3333333), wk =   0.0266667
        k(   51) = (  -0.4000000   0.0000000  -0.3333333), wk =   0.0266667
        k(   52) = (   0.4000000   0.0000000   0.5000000), wk =   0.0266667
        k(   53) = (  -0.2000000  -0.2000000   0.1666667), wk =   0.0266667
        k(   54) = (  -0.2000000  -0.2000000   0.3333333), wk =   0.0266667
        k(   55) = (   0.4000000   0.2000000   0.0000000), wk =   0.0266667
        k(   56) = (  -0.2000000  -0.4000000   0.1666667), wk =   0.0266667
        k(   57) = (   0.4000000   0.2000000  -0.1666667), wk =   0.0266667
        k(   58) = (  -0.4000000  -0.2000000  -0.1666667), wk =   0.0266667
        k(   59) = (  -0.2000000  -0.4000000   0.3333333), wk =   0.0266667
        k(   60) = (   0.4000000   0.2000000  -0.3333333), wk =   0.0266667
        k(   61) = (  -0.4000000  -0.2000000  -0.3333333), wk =   0.0266667
        k(   62) = (   0.4000000   0.2000000   0.5000000), wk =   0.0266667
        k(   63) = (  -0.4000000   0.2000000   0.0000000), wk =   0.0266667
        k(   64) = (  -0.2000000   0.4000000   0.1666667), wk =   0.0266667
        k(   65) = (  -0.4000000   0.2000000  -0.1666667), wk =   0.0266667
        k(   66) = (   0.4000000  -0.2000000  -0.1666667), wk =   0.0266667
        k(   67) = (  -0.2000000   0.4000000   0.3333333), wk =   0.0266667
        k(   68) = (  -0.4000000   0.2000000  -0.3333333), wk =   0.0266667
        k(   69) = (   0.4000000  -0.2000000  -0.3333333), wk =   0.0266667
        k(   70) = (  -0.4000000   0.2000000   0.5000000), wk =   0.0266667
        k(   71) = (  -0.2000000   0.2000000   0.1666667), wk =   0.0266667
        k(   72) = (  -0.2000000   0.2000000   0.3333333), wk =   0.0266667
        k(   73) = (  -0.4000000  -0.4000000   0.1666667), wk =   0.0266667
        k(   74) = (  -0.4000000  -0.4000000   0.3333333), wk =   0.0266667
        k(   75) = (  -0.4000000   0.4000000   0.1666667), wk =   0.0266667
        k(   76) = (  -0.4000000   0.4000000   0.3333333), wk =   0.0266667

     Dense  grid:    19641 G-vectors     FFT dimensions: (  45,  45,  36)

     Dynamical RAM for                 wfc:       0.02 MB

     Dynamical RAM for     wfc (w. buffer):       1.43 MB

     Dynamical RAM for           str. fact:       0.01 MB

     Dynamical RAM for           local pot:       0.00 MB

     Dynamical RAM for          nlocal pot:       0.04 MB

     Dynamical RAM for                qrad:       0.17 MB

     Dynamical RAM for          rho,v,vnew:       0.14 MB

     Dynamical RAM for               rhoin:       0.05 MB

     Dynamical RAM for            rho*nmix:       0.24 MB

     Dynamical RAM for           G-vectors:       0.06 MB

     Dynamical RAM for          h,s,v(r/c):       0.07 MB

     Dynamical RAM for          <psi|beta>:       0.00 MB

     Dynamical RAM for                 psi:       0.07 MB

     Dynamical RAM for                hpsi:       0.07 MB

     Dynamical RAM for      wfcinit/wfcrot:       0.16 MB

     Estimated static dynamical RAM per process >       2.33 MB

     Estimated max dynamical RAM per process >       2.56 MB

     Estimated total dynamical RAM >      51.13 MB

     Initial potential from superposition of free atoms

     starting charge   17.88344, renormalised to   20.00000
     Starting wfcs are   36 randomized atomic wfcs

     total cpu time spent up to now is        0.9 secs

     Self-consistent Calculation

     iteration #  1     ecut=    40.00 Ry     beta= 0.70
     Davidson diagonalization with overlap
     ethr =  1.00E-02,  avg # of iterations =  1.8

     Threshold (ethr) on eigenvalues was too large:
     Diagonalizing with lowered threshold

     Davidson diagonalization with overlap
     ethr =  3.63E-04,  avg # of iterations =  2.2

     total cpu time spent up to now is        2.1 secs

     total energy              =     -52.73036659 Ry
     estimated scf accuracy    <       0.09190514 Ry

     iteration #  2     ecut=    40.00 Ry     beta= 0.70
     Davidson diagonalization with overlap
     ethr =  4.60E-04,  avg # of iterations =  2.1

     total cpu time spent up to now is        2.8 secs

     total energy              =     -52.73743360 Ry
     estimated scf accuracy    <       0.03655768 Ry

     iteration #  3     ecut=    40.00 Ry     beta= 0.70
     Davidson diagonalization with overlap
     ethr =  1.83E-04,  avg # of iterations =  2.0

     total cpu time spent up to now is        3.5 secs

     total energy              =     -52.74715293 Ry
     estimated scf accuracy    <       0.00491392 Ry

     iteration #  4     ecut=    40.00 Ry     beta= 0.70
     Davidson diagonalization with overlap
     ethr =  2.46E-05,  avg # of iterations =  2.0

     total cpu time spent up to now is        4.1 secs

     total energy              =     -52.74807054 Ry
     estimated scf accuracy    <       0.00004356 Ry

     iteration #  5     ecut=    40.00 Ry     beta= 0.70
     Davidson diagonalization with overlap
     ethr =  2.18E-07,  avg # of iterations =  3.4

     total cpu time spent up to now is        5.0 secs

     total energy              =     -52.74809786 Ry
     estimated scf accuracy    <       0.00000369 Ry

     iteration #  6     ecut=    40.00 Ry     beta= 0.70
     Davidson diagonalization with overlap
     ethr =  1.85E-08,  avg # of iterations =  2.4

     total cpu time spent up to now is        5.7 secs

     total energy              =     -52.74809872 Ry
     estimated scf accuracy    <       0.00000014 Ry

     iteration #  7     ecut=    40.00 Ry     beta= 0.70
     Davidson diagonalization with overlap
     ethr =  6.94E-10,  avg # of iterations =  3.3

     total cpu time spent up to now is        6.4 secs

     total energy              =     -52.74809877 Ry
     estimated scf accuracy    <          8.1E-09 Ry

     iteration #  8     ecut=    40.00 Ry     beta= 0.70
     Davidson diagonalization with overlap
     ethr =  4.03E-11,  avg # of iterations =  3.4

     total cpu time spent up to now is        7.3 secs

     total energy              =     -52.74809877 Ry
     estimated scf accuracy    <          5.1E-09 Ry

     iteration #  9     ecut=    40.00 Ry     beta= 0.70
     Davidson diagonalization with overlap
     ethr =  2.56E-11,  avg # of iterations =  2.8

     total cpu time spent up to now is        7.9 secs

     End of self-consistent calculation

          k = 0.0000 0.0000 0.0000 (  2467 PWs)   bands (ev):

    -9.2378  -6.5579  -3.3071  -0.1857   1.3759   1.5393   2.4736   3.7025
     3.9929   5.3374

     occupation numbers 
     1.0000   1.0000   1.0000   1.0000   1.0000   1.0000   1.0000   1.0000
     1.0000   1.0000

          k = 0.0000 0.0000 0.1210 (  2439 PWs)   bands (ev):

    -9.0969  -6.7733  -3.3094  -0.5528   1.1925   2.0969   2.5783   3.9143
     4.4687   4.4751

     occupation numbers 
     1.0000   1.0000   1.0000   1.0000   1.0000   1.0000   1.0000   1.0000
     1.0000   1.0000

          k = 0.0000 0.0000 0.2421 (  2439 PWs)   bands (ev):

    -8.6888  -7.3527  -3.0742  -1.5033   1.4620   2.8698   3.2100   3.4249
     3.6639   5.3866

     occupation numbers 
     1.0000   1.0000   1.0000   1.0000   1.0000   1.0000   1.0000   1.0000
     1.0000   1.0000

          k = 0.0000 0.0000-0.3631 (  2466 PWs)   bands (ev):

    -8.0667  -8.0666  -2.4406  -2.4406   2.1944   2.1945   3.2739   3.2740
     4.7925   4.7925

     occupation numbers 
     1.0000   1.0000   1.0000   1.0000   1.0000   1.0000   1.0000   1.0000
     1.0000   1.0000

          k =-0.2000 0.0586 0.0000 (  2448 PWs)   bands (ev):

    -8.7555  -6.0875  -3.6207   0.2264   0.3358   0.8698   1.9045   2.9020
     3.8943   5.3711

     occupation numbers 
     1.0000   1.0000   1.0000   1.0000   1.0000   1.0000   1.0000   1.0000
     1.0000   1.0000

          k =-0.2000 0.0586 0.1210 (  2448 PWs)   bands (ev):

    -8.6176  -6.3185  -3.5010  -0.4986   0.6217   0.8726   2.4151   2.7039
     4.2473   4.7243

     occupation numbers 
     1.0000   1.0000   1.0000   1.0000   1.0000   1.0000   1.0000   1.0000
     1.0000   1.0000

          k =-0.2000 0.0586 0.2421 (  2443 PWs)   bands (ev):

    -8.2188  -6.9078  -3.0947  -1.4640   0.6361   1.2693   2.0689   3.4819
     3.9882   4.4480

     occupation numbers 
     1.0000   1.0000   1.0000   1.0000   1.0000   1.0000   1.0000   1.0000
     1.0000   1.0000

          k =-0.2000 0.0586-0.3631 (  2432 PWs)   bands (ev):

    -7.6108  -7.6107  -2.3889  -2.3888   0.9873   0.9874   2.5945   2.5946
     4.4606   4.4607

     occupation numbers 
     1.0000   1.0000   1.0000   1.0000   1.0000   1.0000   1.0000   1.0000
     1.0000   1.0000

          k =-0.4000 0.1172 0.0000 (  2438 PWs)   bands (ev):

    -7.3581  -5.2971  -4.6858  -2.4107   0.5713   1.0343   2.7393   3.1488
     3.6818   4.4378

     occupation numbers 
     1.0000   1.0000   1.0000   1.0000   1.0000   1.0000   1.0000   1.0000
     1.0000   1.0000

          k =-0.4000 0.1172 0.1210 (  2447 PWs)   bands (ev):

    -7.2383  -5.4763  -4.4940  -2.5390   0.2839   1.0150   2.4523   2.8536
     3.7519   4.6476

     occupation numbers 
     1.0000   1.0000   1.0000   1.0000   1.0000   1.0000   1.0000   1.0000
     1.0000   1.0000

          k =-0.4000 0.1172 0.2421 (  2442 PWs)   bands (ev):

    -6.8993  -5.8871  -4.0596  -2.9297   0.0715   0.8415   1.7320   2.4883
     3.9296   4.7405

     occupation numbers 
     1.0000   1.0000   1.0000   1.0000   1.0000   1.0000   1.0000   1.0000
     1.0000   1.0000

          k =-0.4000 0.1172-0.3631 (  2442 PWs)   bands (ev):

    -6.4083  -6.4082  -3.4952  -3.4951   0.3280   0.3281   1.9097   1.9097
     4.3451   4.3452

     occupation numbers 
     1.0000   1.0000   1.0000   1.0000   1.0000   1.0000   1.0000   1.0000
     1.0000   1.0000

          k = 0.0000 0.1172 0.0000 (  2457 PWs)   bands (ev):

    -9.2054  -6.6414  -3.2868  -0.0352   1.2239   1.4227   2.4482   3.9004
     4.0347   5.6620

     occupation numbers 
     1.0000   1.0000   1.0000   1.0000   1.0000   1.0000   1.0000   1.0000
     1.0000   1.0000

          k = 0.0000 0.1172 0.1210 (  2452 PWs)   bands (ev):

    -9.0657  -6.8300  -3.3398  -0.5620   1.2338   2.0879   2.5546   3.9473
     4.5524   4.8406

     occupation numbers 
     1.0000   1.0000   1.0000   1.0000   1.0000   1.0000   1.0000   1.0000
     1.0000   1.0000

          k = 0.0000 0.1172 0.2421 (  2433 PWs)   bands (ev):

    -8.6624  -7.3645  -3.1798  -1.6326   1.7748   2.8517   3.3170   3.6735
     3.6769   5.3924

     occupation numbers 
     1.0000   1.0000   1.0000   1.0000   1.0000   1.0000   1.0000   1.0000
     1.0000   1.0000

          k = 0.0000 0.1172-0.3631 (  2442 PWs)   bands (ev):

    -8.0519  -8.0518  -2.5821  -2.5821   2.5876   2.5877   3.2677   3.2678
     4.7465   4.7465

     occupation numbers 
     1.0000   1.0000   1.0000   1.0000   1.0000   1.0000   1.0000   1.0000
     1.0000   1.0000

          k =-0.2000 0.1758 0.0000 (  2457 PWs)   bands (ev):

    -8.7027  -6.2215  -3.6106   0.3311   0.4856   0.8574   1.6638   2.7400
     4.3291   5.6604

     occupation numbers 
     1.0000   1.0000   1.0000   1.0000   1.0000   1.0000   1.0000   1.0000
     1.0000   1.0000

          k =-0.2000 0.1758 0.1210 (  2448 PWs)   bands (ev):

    -8.5671  -6.4077  -3.5465  -0.5540   0.5285   1.1543   2.3088   2.6946
     4.5251   5.1675

     occupation numbers 
     1.0000   1.0000   1.0000   1.0000   1.0000   1.0000   1.0000   1.0000
     1.0000   1.0000

          k =-0.2000 0.1758 0.2421 (  2437 PWs)   bands (ev):

    -8.1761  -6.9257  -3.2291  -1.6208   0.5281   1.3297   2.4880   3.6396
     4.3540   4.6908

     occupation numbers 
     1.0000   1.0000   1.0000   1.0000   1.0000   1.0000   1.0000   1.0000
     1.0000   1.0000

          k =-0.2000 0.1758-0.3631 (  2438 PWs)   bands (ev):

    -7.5869  -7.5868  -2.5652  -2.5652   0.8986   0.8987   3.1672   3.1673
     4.6270   4.6270

     occupation numbers 
     1.0000   1.0000   1.0000   1.0000   1.0000   1.0000   1.0000   1.0000
     1.0000   1.0000

          k = 0.6000-0.0586 0.0000 (  2451 PWs)   bands (ev):

    -7.3084  -5.3306  -4.8148  -2.2959   0.5621   1.1885   2.5686   3.0077
     3.9875   4.2826

     occupation numbers 
     1.0000   1.0000   1.0000   1.0000   1.0000   1.0000   1.0000   1.0000
     1.0000   1.0000

          k = 0.6000-0.0586 0.1210 (  2447 PWs)   bands (ev):

    -7.1913  -5.5102  -4.6007  -2.4559   0.2165   1.1130   2.3455   2.8053
     4.2027   4.5415

     occupation numbers 
     1.0000   1.0000   1.0000   1.0000   1.0000   1.0000   1.0000   1.0000
     1.0000   1.0000

          k = 0.6000-0.0586 0.2421 (  2448 PWs)   bands (ev):

    -6.8612  -5.8963  -4.1369  -2.9135  -0.0746   0.7305   1.8338   2.6264
     4.4699   4.8433

     occupation numbers 
     1.0000   1.0000   1.0000   1.0000   1.0000   1.0000   1.0000   1.0000
     1.0000   1.0000

          k = 0.6000-0.0586-0.3631 (  2442 PWs)   bands (ev):

    -6.3887  -6.3886  -3.5351  -3.5350   0.1396   0.1397   2.1112   2.1112
     4.7397   4.7398

     occupation numbers 
     1.0000   1.0000   1.0000   1.0000   1.0000   1.0000   1.0000   1.0000
     1.0000   1.0000

          k = 0.4000 0.0000 0.0000 (  2430 PWs)   bands (ev):

    -7.3871  -5.2755  -4.6056  -2.4797   0.5739   0.9450   2.8562   3.2313
     3.4793   4.5740

     occupation numbers 
     1.0000   1.0000   1.0000   1.0000   1.0000   1.0000   1.0000   1.0000
     1.0000   1.0000

          k = 0.4000 0.0000 0.1210 (  2447 PWs)   bands (ev):

    -7.2659  -5.4560  -4.4270  -2.5897   0.3415   0.9322   2.5241   2.8677
     3.5659   4.6717

     occupation numbers 
     1.0000   1.0000   1.0000   1.0000   1.0000   1.0000   1.0000   1.0000
     1.0000   1.0000

          k = 0.4000 0.0000 0.2421 (  2436 PWs)   bands (ev):

    -6.9217  -5.8821  -4.0113  -2.9401   0.1839   0.8776   1.7152   2.3926
     3.6633   4.5959

     occupation numbers 
     1.0000   1.0000   1.0000   1.0000   1.0000   1.0000   1.0000   1.0000
     1.0000   1.0000

          k = 0.4000 0.0000-0.3631 (  2448 PWs)   bands (ev):

    -6.4202  -6.4201  -3.4704  -3.4704   0.4625   0.4625   1.7923   1.7923
     4.0789   4.0790

     occupation numbers 
     1.0000   1.0000   1.0000   1.0000   1.0000   1.0000   1.0000   1.0000
     1.0000   1.0000

          k = 0.0000 0.2344 0.0000 (  2460 PWs)   bands (ev):

    -9.1495  -6.7768  -3.2528   0.3068   1.0041   1.0835   2.4095   4.1002
     4.5276   6.2162

     occupation numbers 
     1.0000   1.0000   1.0000   1.0000   1.0000   1.0000   1.0000   1.0000
     1.0000   1.0000

          k = 0.0000 0.2344 0.1210 (  2464 PWs)   bands (ev):

    -9.0121  -6.9257  -3.3765  -0.6322   1.4859   1.9155   2.5183   3.9987
     4.9675   5.4292

     occupation numbers 
     1.0000   1.0000   1.0000   1.0000   1.0000   1.0000   1.0000   1.0000
     1.0000   1.0000

          k = 0.0000 0.2344 0.2421 (  2443 PWs)   bands (ev):

    -8.6172  -7.3868  -3.3273  -1.8344   2.4557   2.8239   3.1042   3.6960
     4.3845   5.4750

     occupation numbers 
     1.0000   1.0000   1.0000   1.0000   1.0000   1.0000   1.0000   1.0000
     1.0000   1.0000

          k = 0.0000 0.2344-0.3631 (  2454 PWs)   bands (ev):

    -8.0275  -8.0274  -2.7880  -2.7880   3.2575   3.2576   3.3546   3.3547
     4.5824   4.5824

     occupation numbers 
     1.0000   1.0000   1.0000   1.0000   1.0000   1.0000   1.0000   1.0000
     1.0000   1.0000

          k = 0.8000 0.0000 0.0000 (  2452 PWs)   bands (ev):

    -8.6680  -6.3045  -3.6042   0.3407   0.7266   0.8282   1.4132   2.6692
     4.7793   5.8165

     occupation numbers 
     1.0000   1.0000   1.0000   1.0000   1.0000   1.0000   1.0000   1.0000
     1.0000   1.0000

          k = 0.8000 0.0000 0.1210 (  2447 PWs)   bands (ev):

    -8.5338  -6.4653  -3.5699  -0.5871   0.4686   1.3319   2.3274   2.5861
     4.8676   5.3854

     occupation numbers 
     1.0000   1.0000   1.0000   1.0000   1.0000   1.0000   1.0000   1.0000
     1.0000   1.0000

          k = 0.8000 0.0000 0.2421 (  2442 PWs)   bands (ev):

    -8.1482  -6.9387  -3.3041  -1.7140   0.4741   1.3387   2.8544   3.5682
     4.6858   4.9163

     occupation numbers 
     1.0000   1.0000   1.0000   1.0000   1.0000   1.0000   1.0000   1.0000
     1.0000   1.0000

          k = 0.8000 0.0000-0.3631 (  2446 PWs)   bands (ev):

    -7.5718  -7.5717  -2.6668  -2.6668   0.8581   0.8582   3.5225   3.5226
     4.7825   4.7825

     occupation numbers 
     1.0000   1.0000   1.0000   1.0000   1.0000   1.0000   1.0000   1.0000
     1.0000   1.0000

          k = 0.2000 0.0586 0.0000 (  2448 PWs)   bands (ev):

    -8.7555  -6.0875  -3.6207   0.2264   0.3358   0.8698   1.9045   2.9020
     3.8943   5.3711

     occupation numbers 
     1.0000   1.0000   1.0000   1.0000   1.0000   1.0000   1.0000   1.0000
     1.0000   1.0000

          k = 0.2000-0.0586 0.1210 (  2448 PWs)   bands (ev):

    -8.6176  -6.3185  -3.5010  -0.4986   0.6217   0.8726   2.4152   2.7038
     4.2474   4.7243

     occupation numbers 
     1.0000   1.0000   1.0000   1.0000   1.0000   1.0000   1.0000   1.0000
     1.0000   1.0000

          k = 0.2000 0.0586-0.1210 (  2448 PWs)   bands (ev):

    -8.6176  -6.3185  -3.5010  -0.4986   0.6218   0.8725   2.4151   2.7039
     4.2473   4.7243

     occupation numbers 
     1.0000   1.0000   1.0000   1.0000   1.0000   1.0000   1.0000   1.0000
     1.0000   1.0000

          k =-0.2000-0.0586-0.1210 (  2448 PWs)   bands (ev):

    -8.6176  -6.3185  -3.5010  -0.4986   0.6217   0.8725   2.4151   2.7039
     4.2473   4.7243

     occupation numbers 
     1.0000   1.0000   1.0000   1.0000   1.0000   1.0000   1.0000   1.0000
     1.0000   1.0000

          k = 0.2000-0.0586 0.2421 (  2443 PWs)   bands (ev):

    -8.2188  -6.9078  -3.0947  -1.4640   0.6361   1.2693   2.0689   3.4819
     3.9882   4.4481

     occupation numbers 
     1.0000   1.0000   1.0000   1.0000   1.0000   1.0000   1.0000   1.0000
     1.0000   1.0000

          k = 0.2000 0.0586-0.2421 (  2443 PWs)   bands (ev):

    -8.2188  -6.9078  -3.0947  -1.4640   0.6361   1.2693   2.0689   3.4819
     3.9882   4.4481

     occupation numbers 
     1.0000   1.0000   1.0000   1.0000   1.0000   1.0000   1.0000   1.0000
     1.0000   1.0000

          k =-0.2000-0.0586-0.2421 (  2443 PWs)   bands (ev):

    -8.2188  -6.9078  -3.0947  -1.4640   0.6361   1.2693   2.0689   3.4819
     3.9882   4.4480

     occupation numbers 
     1.0000   1.0000   1.0000   1.0000   1.0000   1.0000   1.0000   1.0000
     1.0000   1.0000

          k = 0.2000 0.0586 0.3631 (  2432 PWs)   bands (ev):

    -7.6108  -7.6107  -2.3889  -2.3888   0.9873   0.9874   2.5945   2.5946
     4.4606   4.4607

     occupation numbers 
     1.0000   1.0000   1.0000   1.0000   1.0000   1.0000   1.0000   1.0000
     1.0000   1.0000

          k = 0.4000 0.1172 0.0000 (  2438 PWs)   bands (ev):

    -7.3581  -5.2971  -4.6858  -2.4107   0.5713   1.0343   2.7393   3.1488
     3.6818   4.4379

     occupation numbers 
     1.0000   1.0000   1.0000   1.0000   1.0000   1.0000   1.0000   1.0000
     1.0000   1.0000

          k = 0.4000-0.1172 0.1210 (  2447 PWs)   bands (ev):

    -7.2383  -5.4763  -4.4940  -2.5390   0.2839   1.0150   2.4523   2.8536
     3.7519   4.6476

     occupation numbers 
     1.0000   1.0000   1.0000   1.0000   1.0000   1.0000   1.0000   1.0000
     1.0000   1.0000

          k = 0.4000 0.1172-0.1210 (  2447 PWs)   bands (ev):

    -7.2383  -5.4763  -4.4940  -2.5390   0.2839   1.0150   2.4523   2.8536
     3.7520   4.6476

     occupation numbers 
     1.0000   1.0000   1.0000   1.0000   1.0000   1.0000   1.0000   1.0000
     1.0000   1.0000

          k =-0.4000-0.1172-0.1210 (  2447 PWs)   bands (ev):

    -7.2383  -5.4763  -4.4940  -2.5390   0.2839   1.0150   2.4523   2.8536
     3.7519   4.6476

     occupation numbers 
     1.0000   1.0000   1.0000   1.0000   1.0000   1.0000   1.0000   1.0000
     1.0000   1.0000

          k = 0.4000-0.1172 0.2421 (  2442 PWs)   bands (ev):

    -6.8993  -5.8871  -4.0596  -2.9297   0.0715   0.8415   1.7320   2.4883
     3.9296   4.7405

     occupation numbers 
     1.0000   1.0000   1.0000   1.0000   1.0000   1.0000   1.0000   1.0000
     1.0000   1.0000

          k = 0.4000 0.1172-0.2421 (  2442 PWs)   bands (ev):

    -6.8993  -5.8871  -4.0596  -2.9297   0.0715   0.8415   1.7320   2.4883
     3.9296   4.7405

     occupation numbers 
     1.0000   1.0000   1.0000   1.0000   1.0000   1.0000   1.0000   1.0000
     1.0000   1.0000

          k =-0.4000-0.1172-0.2421 (  2442 PWs)   bands (ev):

    -6.8993  -5.8871  -4.0596  -2.9297   0.0715   0.8416   1.7320   2.4883
     3.9296   4.7405

     occupation numbers 
     1.0000   1.0000   1.0000   1.0000   1.0000   1.0000   1.0000   1.0000
     1.0000   1.0000

          k = 0.4000 0.1172 0.3631 (  2442 PWs)   bands (ev):

    -6.4083  -6.4082  -3.4952  -3.4951   0.3281   0.3281   1.9097   1.9097
     4.3452   4.3452

     occupation numbers 
     1.0000   1.0000   1.0000   1.0000   1.0000   1.0000   1.0000   1.0000
     1.0000   1.0000

          k = 0.0000-0.1172 0.1210 (  2452 PWs)   bands (ev):

    -9.0657  -6.8300  -3.3398  -0.5621   1.2339   2.0879   2.5546   3.9473
     4.5525   4.8406

     occupation numbers 
     1.0000   1.0000   1.0000   1.0000   1.0000   1.0000   1.0000   1.0000
     1.0000   1.0000

          k = 0.0000-0.1172 0.2421 (  2433 PWs)   bands (ev):

    -8.6624  -7.3645  -3.1798  -1.6326   1.7748   2.8517   3.3170   3.6735
     3.6769   5.3924

     occupation numbers 
     1.0000   1.0000   1.0000   1.0000   1.0000   1.0000   1.0000   1.0000
     1.0000   1.0000

          k = 0.2000 0.1758 0.0000 (  2457 PWs)   bands (ev):

    -8.7027  -6.2215  -3.6106   0.3310   0.4856   0.8574   1.6638   2.7400
     4.3291   5.6604

     occupation numbers 
     1.0000   1.0000   1.0000   1.0000   1.0000   1.0000   1.0000   1.0000
     1.0000   1.0000

          k = 0.2000-0.1758 0.1210 (  2448 PWs)   bands (ev):

    -8.5671  -6.4077  -3.5465  -0.5541   0.5285   1.1543   2.3088   2.6945
     4.5252   5.1675

     occupation numbers 
     1.0000   1.0000   1.0000   1.0000   1.0000   1.0000   1.0000   1.0000
     1.0000   1.0000

          k = 0.2000 0.1758-0.1210 (  2448 PWs)   bands (ev):

    -8.5671  -6.4077  -3.5465  -0.5541   0.5285   1.1543   2.3088   2.6945
     4.5251   5.1675

     occupation numbers 
     1.0000   1.0000   1.0000   1.0000   1.0000   1.0000   1.0000   1.0000
     1.0000   1.0000

          k =-0.2000-0.1758-0.1210 (  2448 PWs)   bands (ev):

    -8.5671  -6.4077  -3.5465  -0.5541   0.5285   1.1543   2.3088   2.6946
     4.5251   5.1676

     occupation numbers 
     1.0000   1.0000   1.0000   1.0000   1.0000   1.0000   1.0000   1.0000
     1.0000   1.0000

          k = 0.2000-0.1758 0.2421 (  2437 PWs)   bands (ev):

    -8.1761  -6.9257  -3.2291  -1.6209   0.5281   1.3297   2.4880   3.6396
     4.3539   4.6908

     occupation numbers 
     1.0000   1.0000   1.0000   1.0000   1.0000   1.0000   1.0000   1.0000
     1.0000   1.0000

          k = 0.2000 0.1758-0.2421 (  2437 PWs)   bands (ev):

    -8.1761  -6.9257  -3.2291  -1.6209   0.5281   1.3297   2.4879   3.6396
     4.3540   4.6907

     occupation numbers 
     1.0000   1.0000   1.0000   1.0000   1.0000   1.0000   1.0000   1.0000
     1.0000   1.0000

          k =-0.2000-0.1758-0.2421 (  2437 PWs)   bands (ev):

    -8.1761  -6.9257  -3.2291  -1.6208   0.5281   1.3297   2.4879   3.6396
     4.3540   4.6907

     occupation numbers 
     1.0000   1.0000   1.0000   1.0000   1.0000   1.0000   1.0000   1.0000
     1.0000   1.0000

          k = 0.2000 0.1758 0.3631 (  2438 PWs)   bands (ev):

    -7.5869  -7.5868  -2.5652  -2.5652   0.8986   0.8987   3.1672   3.1672
     4.6270   4.6270

     occupation numbers 
     1.0000   1.0000   1.0000   1.0000   1.0000   1.0000   1.0000   1.0000
     1.0000   1.0000

          k =-0.6000-0.0586 0.0000 (  2451 PWs)   bands (ev):

    -7.3084  -5.3306  -4.8148  -2.2959   0.5621   1.1885   2.5686   3.0077
     3.9875   4.2826

     occupation numbers 
     1.0000   1.0000   1.0000   1.0000   1.0000   1.0000   1.0000   1.0000
     1.0000   1.0000

          k =-0.6000 0.0586 0.1210 (  2447 PWs)   bands (ev):

    -7.1913  -5.5102  -4.6007  -2.4559   0.2165   1.1130   2.3455   2.8053
     4.2027   4.5415

     occupation numbers 
     1.0000   1.0000   1.0000   1.0000   1.0000   1.0000   1.0000   1.0000
     1.0000   1.0000

          k =-0.6000-0.0586-0.1210 (  2447 PWs)   bands (ev):

    -7.1913  -5.5102  -4.6007  -2.4559   0.2165   1.1130   2.3455   2.8053
     4.2027   4.5415

     occupation numbers 
     1.0000   1.0000   1.0000   1.0000   1.0000   1.0000   1.0000   1.0000
     1.0000   1.0000

          k = 0.6000 0.0586-0.1210 (  2447 PWs)   bands (ev):

    -7.1913  -5.5102  -4.6007  -2.4559   0.2165   1.1130   2.3455   2.8053
     4.2027   4.5415

     occupation numbers 
     1.0000   1.0000   1.0000   1.0000   1.0000   1.0000   1.0000   1.0000
     1.0000   1.0000

          k =-0.6000 0.0586 0.2421 (  2448 PWs)   bands (ev):

    -6.8612  -5.8963  -4.1368  -2.9135  -0.0746   0.7305   1.8338   2.6264
     4.4699   4.8433

     occupation numbers 
     1.0000   1.0000   1.0000   1.0000   1.0000   1.0000   1.0000   1.0000
     1.0000   1.0000

          k =-0.6000-0.0586-0.2421 (  2448 PWs)   bands (ev):

    -6.8612  -5.8963  -4.1369  -2.9135  -0.0746   0.7305   1.8338   2.6264
     4.4699   4.8433

     occupation numbers 
     1.0000   1.0000   1.0000   1.0000   1.0000   1.0000   1.0000   1.0000
     1.0000   1.0000

          k = 0.6000 0.0586-0.2421 (  2448 PWs)   bands (ev):

    -6.8612  -5.8963  -4.1369  -2.9135  -0.0746   0.7305   1.8338   2.6264
     4.4699   4.8433

     occupation numbers 
     1.0000   1.0000   1.0000   1.0000   1.0000   1.0000   1.0000   1.0000
     1.0000   1.0000

          k =-0.6000-0.0586 0.3631 (  2442 PWs)   bands (ev):

    -6.3887  -6.3886  -3.5351  -3.5350   0.1396   0.1397   2.1112   2.1112
     4.7397   4.7398

     occupation numbers 
     1.0000   1.0000   1.0000   1.0000   1.0000   1.0000   1.0000   1.0000
     1.0000   1.0000

          k =-0.4000-0.0000 0.1210 (  2447 PWs)   bands (ev):

    -7.2659  -5.4560  -4.4270  -2.5897   0.3415   0.9322   2.5241   2.8677
     3.5659   4.6717

     occupation numbers 
     1.0000   1.0000   1.0000   1.0000   1.0000   1.0000   1.0000   1.0000
     1.0000   1.0000

          k =-0.4000-0.0000 0.2421 (  2436 PWs)   bands (ev):

    -6.9217  -5.8821  -4.0113  -2.9401   0.1839   0.8776   1.7152   2.3926
     3.6633   4.5959

     occupation numbers 
     1.0000   1.0000   1.0000   1.0000   1.0000   1.0000   1.0000   1.0000
     1.0000   1.0000

          k = 0.0000-0.2344 0.1210 (  2464 PWs)   bands (ev):

    -9.0121  -6.9257  -3.3765  -0.6322   1.4860   1.9154   2.5183   3.9987
     4.9675   5.4292

     occupation numbers 
     1.0000   1.0000   1.0000   1.0000   1.0000   1.0000   1.0000   1.0000
     1.0000   1.0000

          k = 0.0000-0.2344 0.2421 (  2443 PWs)   bands (ev):

    -8.6172  -7.3868  -3.3273  -1.8344   2.4557   2.8239   3.1042   3.6960
     4.3845   5.4750

     occupation numbers 
     1.0000   1.0000   1.0000   1.0000   1.0000   1.0000   1.0000   1.0000
     1.0000   1.0000

          k =-0.8000 0.0000 0.1210 (  2447 PWs)   bands (ev):

    -8.5338  -6.4653  -3.5699  -0.5871   0.4686   1.3319   2.3274   2.5861
     4.8676   5.3854

     occupation numbers 
     1.0000   1.0000   1.0000   1.0000   1.0000   1.0000   1.0000   1.0000
     1.0000   1.0000

          k =-0.8000 0.0000 0.2421 (  2442 PWs)   bands (ev):

    -8.1482  -6.9387  -3.3041  -1.7140   0.4741   1.3387   2.8544   3.5682
     4.6858   4.9163

     occupation numbers 
     1.0000   1.0000   1.0000   1.0000   1.0000   1.0000   1.0000   1.0000
     1.0000   1.0000

     highest occupied level (ev):     6.2162

!    total energy              =     -52.74809877 Ry
     estimated scf accuracy    <          8.9E-11 Ry

     The total energy is the sum of the following terms:
     one-electron contribution =       0.81638945 Ry
     hartree contribution      =       8.08160754 Ry
     xc contribution           =     -13.43648631 Ry
     ewald contribution        =     -48.20960945 Ry

     convergence has been achieved in   9 iterations

     Writing output data file run_output/BP.save/

     init_run     :      0.78s CPU      0.80s WALL (       1 calls)
     electrons    :      6.87s CPU      7.15s WALL (       1 calls)

     Called by init_run:
     wfcinit      :      0.74s CPU      0.75s WALL (       1 calls)
     wfcinit:atom :      0.00s CPU      0.00s WALL (      76 calls)
     wfcinit:wfcr :      0.70s CPU      0.72s WALL (      76 calls)
     potinit      :      0.02s CPU      0.02s WALL (       1 calls)
     hinit0       :      0.02s CPU      0.02s WALL (       1 calls)

     Called by electrons:
     c_bands      :      5.99s CPU      6.14s WALL (      10 calls)
     sum_band     :      0.83s CPU      0.86s WALL (      10 calls)
     v_of_rho     :      0.04s CPU      0.04s WALL (      10 calls)
     v_h          :      0.00s CPU      0.00s WALL (      10 calls)
     v_xc         :      0.04s CPU      0.04s WALL (      10 calls)
     mix_rho      :      0.00s CPU      0.00s WALL (      10 calls)

     Called by c_bands:
     init_us_2    :      0.06s CPU      0.06s WALL (    1596 calls)
     cegterg      :      5.93s CPU      6.05s WALL (     760 calls)

     Called by sum_band:
     sum_band:wei :      0.00s CPU      0.00s WALL (      10 calls)
     sum_band:loo :      0.82s CPU      0.86s WALL (      10 calls)
     sum_band:buf :      0.00s CPU      0.00s WALL (     760 calls)
     sum_band:ini :      0.02s CPU      0.03s WALL (     760 calls)

     Called by *egterg:
     cdiaghg      :      0.58s CPU      0.60s WALL (    2620 calls)
     cegterg:over :      0.26s CPU      0.26s WALL (    1936 calls)
     cegterg:upda :      0.11s CPU      0.11s WALL (    1936 calls)
     cegterg:last :      0.05s CPU      0.05s WALL (     760 calls)
     h_psi        :      5.38s CPU      5.51s WALL (    2772 calls)
     g_psi        :      0.02s CPU      0.02s WALL (    1936 calls)

     Called by h_psi:
     h_psi:calbec :      0.21s CPU      0.19s WALL (    2772 calls)
     vloc_psi     :      5.03s CPU      5.17s WALL (    2772 calls)
     add_vuspsi   :      0.14s CPU      0.12s WALL (    2772 calls)

     General routines
     calbec       :      0.20s CPU      0.19s WALL (    2772 calls)
     fft          :      0.02s CPU      0.02s WALL (     100 calls)
     ffts         :      0.00s CPU      0.00s WALL (      10 calls)
     fftw         :      5.58s CPU      5.70s WALL (   57124 calls)

     Parallel routines
     fft_scatt_xy :      0.38s CPU      0.44s WALL (   57234 calls)
     fft_scatt_yz :      1.93s CPU      1.90s WALL (   57234 calls)

     PWSCF        :      7.88s CPU      9.80s WALL


   This run was terminated on:  18:51:10  11May2021            

=------------------------------------------------------------------------------=
   JOB DONE.
=------------------------------------------------------------------------------=
