
     Program PWSCF v.6.7MaX starts on 23Feb2021 at 18:10:30 

     This program is part of the open-source Quantum ESPRESSO suite
     for quantum simulation of materials; please cite
         "P. Giannozzi et al., J. Phys.:Condens. Matter 21 395502 (2009);
         "P. Giannozzi et al., J. Phys.:Condens. Matter 29 465901 (2017);
          URL http://www.quantum-espresso.org", 
     in publications or presentations arising from this work. More details at
     http://www.quantum-espresso.org/quote

     Parallel version (MPI), running on     1 processors

     MPI processes distributed on     1 nodes
     Waiting for input...
     Reading input from standard input
     Message from routine read_cards :
     DEPRECATED: no units specified in ATOMIC_POSITIONS card
     Message from routine read_cards :
     ATOMIC_POSITIONS: units set to alat

     Current dimensions of program PWSCF are:
     Max number of different atomic species (ntypx) = 10
     Max number of k-points (npk) =  40000
     Max angular momentum in pseudopotentials (lmaxx) =  3

     Atomic positions and unit cell read from directory:
     run_output/Si.save/


     Subspace diagonalization in iterative solution of the eigenvalue problem:
     a serial algorithm will be used


     G-vector sticks info
     --------------------
     sticks:   dense  smooth     PW     G-vecs:    dense   smooth      PW
     Sum         211     211     85                 2085     2085     459



     bravais-lattice index     =            2
     lattice parameter (alat)  =      10.1830  a.u.
     unit-cell volume          =     263.9777 (a.u.)^3
     number of atoms/cell      =            2
     number of atomic types    =            1
     number of electrons       =         8.00
     number of Kohn-Sham states=           25
     kinetic-energy cutoff     =      15.0000  Ry
     charge density cutoff     =      60.0000  Ry
     Exchange-correlation=  SLA  PZ   NOGX NOGC
                           (   1   1   0   0   0   0   0)

     celldm(1)=  10.183000  celldm(2)=   0.000000  celldm(3)=   0.000000
     celldm(4)=   0.000000  celldm(5)=   0.000000  celldm(6)=   0.000000

     crystal axes: (cart. coord. in units of alat)
               a(1) = (  -0.500000   0.000000   0.500000 )  
               a(2) = (   0.000000   0.500000   0.500000 )  
               a(3) = (  -0.500000   0.500000   0.000000 )  

     reciprocal axes: (cart. coord. in units 2 pi/alat)
               b(1) = ( -1.000000 -1.000000  1.000000 )  
               b(2) = (  1.000000  1.000000  1.000000 )  
               b(3) = ( -1.000000  1.000000 -1.000000 )  


     PseudoPot. # 1 for Si read from file:
     PPs/Si.vbc.UPF
     MD5 check sum: 7974b67c806a44bbea7c2da40a3c413a
     Pseudo is Norm-conserving, Zval =  4.0
     Generated by new atomic code, or converted to UPF format
     Using radial grid of  431 points,  2 beta functions with: 
                l(1) =   0
                l(2) =   1

     atomic species   valence    mass     pseudopotential
        Si             4.00    28.08600     Si( 1.00)

     24 Sym. Ops. (no inversion) found


                                    s                        frac. trans.

      isym =  1     identity                                     

 cryst.   s( 1) = (     1          0          0      )
                  (     0          1          0      )
                  (     0          0          1      )

 cart.    s( 1) = (  1.0000000  0.0000000  0.0000000 )
                  (  0.0000000  1.0000000  0.0000000 )
                  (  0.0000000  0.0000000  1.0000000 )


      isym =  2     180 deg rotation - cart. axis [0,0,1]        

 cryst.   s( 2) = (     0          1         -1      )
                  (     1          0         -1      )
                  (     0          0         -1      )

 cart.    s( 2) = ( -1.0000000  0.0000000  0.0000000 )
                  (  0.0000000 -1.0000000  0.0000000 )
                  (  0.0000000  0.0000000  1.0000000 )


      isym =  3     180 deg rotation - cart. axis [0,1,0]        

 cryst.   s( 3) = (    -1          0          0      )
                  (    -1          0          1      )
                  (    -1          1          0      )

 cart.    s( 3) = ( -1.0000000  0.0000000  0.0000000 )
                  (  0.0000000  1.0000000  0.0000000 )
                  (  0.0000000  0.0000000 -1.0000000 )


      isym =  4     180 deg rotation - cart. axis [1,0,0]        

 cryst.   s( 4) = (     0         -1          1      )
                  (     0         -1          0      )
                  (     1         -1          0      )

 cart.    s( 4) = (  1.0000000  0.0000000  0.0000000 )
                  (  0.0000000 -1.0000000  0.0000000 )
                  (  0.0000000  0.0000000 -1.0000000 )


      isym =  5     120 deg rotation - cart. axis [-1,-1,-1]     

 cryst.   s( 5) = (    -1          0          1      )
                  (    -1          1          0      )
                  (    -1          0          0      )

 cart.    s( 5) = (  0.0000000  1.0000000  0.0000000 )
                  (  0.0000000  0.0000000  1.0000000 )
                  (  1.0000000  0.0000000  0.0000000 )


      isym =  6     120 deg rotation - cart. axis [-1,1,1]       

 cryst.   s( 6) = (     0          1          0      )
                  (     0          0          1      )
                  (     1          0          0      )

 cart.    s( 6) = (  0.0000000 -1.0000000  0.0000000 )
                  (  0.0000000  0.0000000  1.0000000 )
                  ( -1.0000000  0.0000000  0.0000000 )


      isym =  7     120 deg rotation - cart. axis [1,1,-1]       

 cryst.   s( 7) = (     1          0         -1      )
                  (     0          0         -1      )
                  (     0          1         -1      )

 cart.    s( 7) = (  0.0000000  1.0000000  0.0000000 )
                  (  0.0000000  0.0000000 -1.0000000 )
                  ( -1.0000000  0.0000000  0.0000000 )


      isym =  8     120 deg rotation - cart. axis [1,-1,1]       

 cryst.   s( 8) = (     0         -1          0      )
                  (     1         -1          0      )
                  (     0         -1          1      )

 cart.    s( 8) = (  0.0000000 -1.0000000  0.0000000 )
                  (  0.0000000  0.0000000 -1.0000000 )
                  (  1.0000000  0.0000000  0.0000000 )


      isym =  9     120 deg rotation - cart. axis [1,1,1]        

 cryst.   s( 9) = (     0          0         -1      )
                  (     0          1         -1      )
                  (     1          0         -1      )

 cart.    s( 9) = (  0.0000000  0.0000000  1.0000000 )
                  (  1.0000000  0.0000000  0.0000000 )
                  (  0.0000000  1.0000000  0.0000000 )


      isym = 10     120 deg rotation - cart. axis [-1,1,-1]      

 cryst.   s(10) = (    -1          1          0      )
                  (    -1          0          0      )
                  (    -1          0          1      )

 cart.    s(10) = (  0.0000000  0.0000000  1.0000000 )
                  ( -1.0000000  0.0000000  0.0000000 )
                  (  0.0000000 -1.0000000  0.0000000 )


      isym = 11     120 deg rotation - cart. axis [1,-1,-1]      

 cryst.   s(11) = (     0          0          1      )
                  (     1          0          0      )
                  (     0          1          0      )

 cart.    s(11) = (  0.0000000  0.0000000 -1.0000000 )
                  ( -1.0000000  0.0000000  0.0000000 )
                  (  0.0000000  1.0000000  0.0000000 )


      isym = 12     120 deg rotation - cart. axis [-1,-1,1]      

 cryst.   s(12) = (     1         -1          0      )
                  (     0         -1          1      )
                  (     0         -1          0      )

 cart.    s(12) = (  0.0000000  0.0000000 -1.0000000 )
                  (  1.0000000  0.0000000  0.0000000 )
                  (  0.0000000 -1.0000000  0.0000000 )


      isym = 13     inv. 180 deg rotation - cart. axis [1,1,0]   

 cryst.   s(13) = (     0          1          0      )
                  (     1          0          0      )
                  (     0          0          1      )

 cart.    s(13) = (  0.0000000 -1.0000000  0.0000000 )
                  ( -1.0000000  0.0000000  0.0000000 )
                  (  0.0000000  0.0000000  1.0000000 )


      isym = 14     inv. 180 deg rotation - cart. axis [1,-1,0]  

 cryst.   s(14) = (     1          0         -1      )
                  (     0          1         -1      )
                  (     0          0         -1      )

 cart.    s(14) = (  0.0000000  1.0000000  0.0000000 )
                  (  1.0000000  0.0000000  0.0000000 )
                  (  0.0000000  0.0000000  1.0000000 )


      isym = 15     inv.  90 deg rotation - cart. axis [0,0,-1]  

 cryst.   s(15) = (     0         -1          0      )
                  (     0         -1          1      )
                  (     1         -1          0      )

 cart.    s(15) = (  0.0000000 -1.0000000  0.0000000 )
                  (  1.0000000  0.0000000  0.0000000 )
                  (  0.0000000  0.0000000 -1.0000000 )


      isym = 16     inv.  90 deg rotation - cart. axis [0,0,1]   

 cryst.   s(16) = (    -1          0          1      )
                  (    -1          0          0      )
                  (    -1          1          0      )

 cart.    s(16) = (  0.0000000  1.0000000  0.0000000 )
                  ( -1.0000000  0.0000000  0.0000000 )
                  (  0.0000000  0.0000000 -1.0000000 )


      isym = 17     inv. 180 deg rotation - cart. axis [1,0,1]   

 cryst.   s(17) = (     1          0          0      )
                  (     0          0          1      )
                  (     0          1          0      )

 cart.    s(17) = (  0.0000000  0.0000000 -1.0000000 )
                  (  0.0000000  1.0000000  0.0000000 )
                  ( -1.0000000  0.0000000  0.0000000 )


      isym = 18     inv. 180 deg rotation - cart. axis [-1,0,1]  

 cryst.   s(18) = (    -1          0          0      )
                  (    -1          1          0      )
                  (    -1          0          1      )

 cart.    s(18) = (  0.0000000  0.0000000  1.0000000 )
                  (  0.0000000  1.0000000  0.0000000 )
                  (  1.0000000  0.0000000  0.0000000 )


      isym = 19     inv.  90 deg rotation - cart. axis [0,1,0]   

 cryst.   s(19) = (     0         -1          1      )
                  (     1         -1          0      )
                  (     0         -1          0      )

 cart.    s(19) = (  0.0000000  0.0000000 -1.0000000 )
                  (  0.0000000 -1.0000000  0.0000000 )
                  (  1.0000000  0.0000000  0.0000000 )


      isym = 20     inv.  90 deg rotation - cart. axis [0,-1,0]  

 cryst.   s(20) = (     0          1         -1      )
                  (     0          0         -1      )
                  (     1          0         -1      )

 cart.    s(20) = (  0.0000000  0.0000000  1.0000000 )
                  (  0.0000000 -1.0000000  0.0000000 )
                  ( -1.0000000  0.0000000  0.0000000 )


      isym = 21     inv. 180 deg rotation - cart. axis [0,1,1]   

 cryst.   s(21) = (     1         -1          0      )
                  (     0         -1          0      )
                  (     0         -1          1      )

 cart.    s(21) = (  1.0000000  0.0000000  0.0000000 )
                  (  0.0000000  0.0000000 -1.0000000 )
                  (  0.0000000 -1.0000000  0.0000000 )


      isym = 22     inv. 180 deg rotation - cart. axis [0,1,-1]  

 cryst.   s(22) = (     0          0          1      )
                  (     0          1          0      )
                  (     1          0          0      )

 cart.    s(22) = (  1.0000000  0.0000000  0.0000000 )
                  (  0.0000000  0.0000000  1.0000000 )
                  (  0.0000000  1.0000000  0.0000000 )


      isym = 23     inv.  90 deg rotation - cart. axis [-1,0,0]  

 cryst.   s(23) = (     0          0         -1      )
                  (     1          0         -1      )
                  (     0          1         -1      )

 cart.    s(23) = ( -1.0000000  0.0000000  0.0000000 )
                  (  0.0000000  0.0000000 -1.0000000 )
                  (  0.0000000  1.0000000  0.0000000 )


      isym = 24     inv.  90 deg rotation - cart. axis [1,0,0]   

 cryst.   s(24) = (    -1          1          0      )
                  (    -1          0          1      )
                  (    -1          0          0      )

 cart.    s(24) = ( -1.0000000  0.0000000  0.0000000 )
                  (  0.0000000  0.0000000  1.0000000 )
                  (  0.0000000 -1.0000000  0.0000000 )


     point group T_d (-43m) 
     there are  5 classes
     the character table:

       E     8C3   3C2   6S4   6s_d 
A_1    1.00  1.00  1.00  1.00  1.00
A_2    1.00  1.00  1.00 -1.00 -1.00
E      2.00 -1.00  2.00  0.00  0.00
T_1    3.00  0.00 -1.00  1.00 -1.00
T_2    3.00  0.00 -1.00 -1.00  1.00

     the symmetry operations in each class and the name of the first element:

     E        1
          identity                                               
     8C3      5    7    8    6   12    9   10   11
          120 deg rotation - cart. axis [-1,-1,-1]               
     3C2      2    3    4
          180 deg rotation - cart. axis [0,0,1]                  
     6S4     15   16   20   19   23   24
          inv.  90 deg rotation - cart. axis [0,0,-1]            
     6s_d    13   14   17   18   21   22
          inv. 180 deg rotation - cart. axis [1,1,0]             

   Cartesian axes

     site n.     atom                  positions (alat units)
         1           Si  tau(   1) = (   0.0000000   0.0000000   0.0000000  )
         2           Si  tau(   2) = (   0.2500000   0.2500000   0.2500000  )

   Crystallographic axes

     site n.     atom                  positions (cryst. coord.)
         1           Si  tau(   1) = (  0.0000000  0.0000000  0.0000000  )
         2           Si  tau(   2) = ( -0.2500000  0.7500000 -0.2500000  )

     number of k points=    29
                       cart. coord. in units 2pi/alat
        k(    1) = (   0.0000000   0.0000000   0.0000000), wk =   0.0039062
        k(    2) = (  -0.1250000   0.1250000  -0.1250000), wk =   0.0312500
        k(    3) = (  -0.2500000   0.2500000  -0.2500000), wk =   0.0312500
        k(    4) = (  -0.3750000   0.3750000  -0.3750000), wk =   0.0312500
        k(    5) = (   0.5000000  -0.5000000   0.5000000), wk =   0.0156250
        k(    6) = (   0.0000000   0.2500000   0.0000000), wk =   0.0234375
        k(    7) = (  -0.1250000   0.3750000  -0.1250000), wk =   0.0937500
        k(    8) = (  -0.2500000   0.5000000  -0.2500000), wk =   0.0937500
        k(    9) = (   0.6250000  -0.3750000   0.6250000), wk =   0.0937500
        k(   10) = (   0.5000000  -0.2500000   0.5000000), wk =   0.0937500
        k(   11) = (   0.3750000  -0.1250000   0.3750000), wk =   0.0937500
        k(   12) = (   0.2500000   0.0000000   0.2500000), wk =   0.0468750
        k(   13) = (   0.0000000   0.5000000   0.0000000), wk =   0.0234375
        k(   14) = (  -0.1250000   0.6250000  -0.1250000), wk =   0.0937500
        k(   15) = (   0.7500000  -0.2500000   0.7500000), wk =   0.0937500
        k(   16) = (   0.6250000  -0.1250000   0.6250000), wk =   0.0937500
        k(   17) = (   0.5000000   0.0000000   0.5000000), wk =   0.0468750
        k(   18) = (   0.0000000   0.7500000   0.0000000), wk =   0.0234375
        k(   19) = (   0.8750000  -0.1250000   0.8750000), wk =   0.0937500
        k(   20) = (   0.7500000   0.0000000   0.7500000), wk =   0.0468750
        k(   21) = (   0.0000000  -1.0000000   0.0000000), wk =   0.0117188
        k(   22) = (  -0.2500000   0.5000000   0.0000000), wk =   0.0937500
        k(   23) = (   0.6250000  -0.3750000   0.8750000), wk =   0.1875000
        k(   24) = (   0.5000000  -0.2500000   0.7500000), wk =   0.0937500
        k(   25) = (   0.7500000  -0.2500000   1.0000000), wk =   0.0937500
        k(   26) = (   0.6250000  -0.1250000   0.8750000), wk =   0.1875000
        k(   27) = (   0.5000000   0.0000000   0.7500000), wk =   0.0937500
        k(   28) = (  -0.2500000  -1.0000000   0.0000000), wk =   0.0468750
        k(   29) = (  -0.5000000  -1.0000000   0.0000000), wk =   0.0234375

                       cryst. coord.
        k(    1) = (   0.0000000   0.0000000   0.0000000), wk =   0.0039062
        k(    2) = (   0.0000000   0.0000000   0.1250000), wk =   0.0312500
        k(    3) = (   0.0000000   0.0000000   0.2500000), wk =   0.0312500
        k(    4) = (   0.0000000   0.0000000   0.3750000), wk =   0.0312500
        k(    5) = (   0.0000000   0.0000000  -0.5000000), wk =   0.0156250
        k(    6) = (   0.0000000   0.1250000   0.1250000), wk =   0.0234375
        k(    7) = (   0.0000000   0.1250000   0.2500000), wk =   0.0937500
        k(    8) = (   0.0000000   0.1250000   0.3750000), wk =   0.0937500
        k(    9) = (   0.0000000   0.1250000  -0.5000000), wk =   0.0937500
        k(   10) = (   0.0000000   0.1250000  -0.3750000), wk =   0.0937500
        k(   11) = (   0.0000000   0.1250000  -0.2500000), wk =   0.0937500
        k(   12) = (   0.0000000   0.1250000  -0.1250000), wk =   0.0468750
        k(   13) = (   0.0000000   0.2500000   0.2500000), wk =   0.0234375
        k(   14) = (   0.0000000   0.2500000   0.3750000), wk =   0.0937500
        k(   15) = (   0.0000000   0.2500000  -0.5000000), wk =   0.0937500
        k(   16) = (   0.0000000   0.2500000  -0.3750000), wk =   0.0937500
        k(   17) = (   0.0000000   0.2500000  -0.2500000), wk =   0.0468750
        k(   18) = (   0.0000000   0.3750000   0.3750000), wk =   0.0234375
        k(   19) = (   0.0000000   0.3750000  -0.5000000), wk =   0.0937500
        k(   20) = (   0.0000000   0.3750000  -0.3750000), wk =   0.0468750
        k(   21) = (   0.0000000  -0.5000000  -0.5000000), wk =   0.0117188
        k(   22) = (   0.1250000   0.2500000   0.3750000), wk =   0.0937500
        k(   23) = (   0.1250000   0.2500000  -0.5000000), wk =   0.1875000
        k(   24) = (   0.1250000   0.2500000  -0.3750000), wk =   0.0937500
        k(   25) = (   0.1250000   0.3750000  -0.5000000), wk =   0.0937500
        k(   26) = (   0.1250000   0.3750000  -0.3750000), wk =   0.1875000
        k(   27) = (   0.1250000   0.3750000  -0.2500000), wk =   0.0937500
        k(   28) = (   0.1250000  -0.5000000  -0.3750000), wk =   0.0468750
        k(   29) = (   0.2500000  -0.5000000  -0.2500000), wk =   0.0234375

     Dense  grid:     2085 G-vectors     FFT dimensions: (  18,  18,  18)

     Dynamical RAM for                 wfc:       0.10 MB

     Dynamical RAM for     wfc (w. buffer):       0.10 MB

     Dynamical RAM for           str. fact:       0.03 MB

     Dynamical RAM for           local pot:       0.00 MB

     Dynamical RAM for          nlocal pot:       0.03 MB

     Dynamical RAM for                qrad:       0.05 MB

     Dynamical RAM for          rho,v,vnew:       0.23 MB

     Dynamical RAM for           G-vectors:       0.14 MB

     Dynamical RAM for          h,s,v(r/c):       0.11 MB

     Dynamical RAM for          <psi|beta>:       0.00 MB

     Dynamical RAM for                 psi:       0.20 MB

     Dynamical RAM for                hpsi:       0.20 MB

     Dynamical RAM for      wfcinit/wfcrot:       0.21 MB

     Estimated static dynamical RAM per process >       0.87 MB

     Estimated max dynamical RAM per process >       1.38 MB

     The potential is recalculated from file :
     run_output/Si.save/charge-density

     Starting wfcs are    8 randomized atomic wfcs +   17 random wfcs

     Band Structure Calculation
     Davidson diagonalization with overlap

     Computing kpt #:     1  of    29
     total cpu time spent up to now is        0.6 secs

     Computing kpt #:     2  of    29
     total cpu time spent up to now is        0.8 secs

     Computing kpt #:     3  of    29
     total cpu time spent up to now is        0.9 secs

     Computing kpt #:     4  of    29
     total cpu time spent up to now is        0.9 secs

     Computing kpt #:     5  of    29
     total cpu time spent up to now is        1.0 secs

     Computing kpt #:     6  of    29
     total cpu time spent up to now is        1.1 secs

     Computing kpt #:     7  of    29
     total cpu time spent up to now is        1.2 secs

     Computing kpt #:     8  of    29
     total cpu time spent up to now is        1.4 secs

     Computing kpt #:     9  of    29
     total cpu time spent up to now is        1.4 secs

     Computing kpt #:    10  of    29
     total cpu time spent up to now is        1.5 secs

     Computing kpt #:    11  of    29
     total cpu time spent up to now is        1.6 secs

     Computing kpt #:    12  of    29
     total cpu time spent up to now is        1.7 secs

     Computing kpt #:    13  of    29
     total cpu time spent up to now is        1.8 secs

     Computing kpt #:    14  of    29
     total cpu time spent up to now is        1.9 secs

     Computing kpt #:    15  of    29
     total cpu time spent up to now is        2.0 secs

     Computing kpt #:    16  of    29
     total cpu time spent up to now is        2.1 secs

     Computing kpt #:    17  of    29
     total cpu time spent up to now is        2.2 secs

     Computing kpt #:    18  of    29
     total cpu time spent up to now is        2.3 secs

     Computing kpt #:    19  of    29
     total cpu time spent up to now is        2.4 secs

     Computing kpt #:    20  of    29
     total cpu time spent up to now is        2.5 secs

     Computing kpt #:    21  of    29
     total cpu time spent up to now is        2.5 secs

     Computing kpt #:    22  of    29
     total cpu time spent up to now is        2.6 secs

     Computing kpt #:    23  of    29
     total cpu time spent up to now is        2.7 secs

     Computing kpt #:    24  of    29
     total cpu time spent up to now is        2.8 secs

     Computing kpt #:    25  of    29
     total cpu time spent up to now is        2.9 secs

     Computing kpt #:    26  of    29
     total cpu time spent up to now is        3.0 secs

     Computing kpt #:    27  of    29
     total cpu time spent up to now is        3.1 secs

     Computing kpt #:    28  of    29
     total cpu time spent up to now is        3.2 secs

     Computing kpt #:    29  of    29
     total cpu time spent up to now is        3.3 secs

     ethr =  1.00E-05,  avg # of iterations = 14.4

     total cpu time spent up to now is        3.3 secs

     End of band structure calculation

          k = 0.0000 0.0000 0.0000 (   259 PWs)   bands (ev):

    -5.7277   6.3571   6.3571   6.3571   8.9137   8.9137   8.9137   9.8887
    14.1161  14.2533  14.2533  17.6062  17.6062  17.6062  21.5064  29.8112
    29.8112  29.8112  31.2508  31.2508  32.2096  32.2096  32.2096  36.1938
    36.1938

     occupation numbers 
     1.0000   1.0000   1.0000   1.0000   0.0000   0.0000   0.0000   0.0000
     0.0000   0.0000   0.0000   0.0000   0.0000   0.0000   0.0000   0.0000
     0.0000   0.0000   0.0000   0.0000   0.0000   0.0000   0.0000   0.0000
     0.0000

          k =-0.1250 0.1250-0.1250 (   271 PWs)   bands (ev):

    -5.5353   4.7430   6.0529   6.0529   8.8855   9.3487   9.3487  11.1708
    13.7200  13.7200  14.9299  16.9916  18.8345  18.8345  22.8186  27.7145
    27.7145  27.8990  30.6192  30.6192  32.8210  32.8210  33.6381  36.3740
    38.3800

     occupation numbers 
     1.0000   1.0000   1.0000   1.0000   0.0000   0.0000   0.0000   0.0000
     0.0000   0.0000   0.0000   0.0000   0.0000   0.0000   0.0000   0.0000
     0.0000   0.0000   0.0000   0.0000   0.0000   0.0000   0.0000   0.0000
     0.0000

          k =-0.2500 0.2500-0.2500 (   268 PWs)   bands (ev):

    -4.9248   2.3759   5.5670   5.5670   8.4258   9.8757   9.8757  13.3117
    13.6569  13.6569  15.2189  18.1411  21.1701  21.1701  24.4255  24.4361
    24.4361  26.3307  30.7824  30.7824  33.2236  33.2236  34.5690  35.4957
    36.9151

     occupation numbers 
     1.0000   1.0000   1.0000   1.0000   0.0000   0.0000   0.0000   0.0000
     0.0000   0.0000   0.0000   0.0000   0.0000   0.0000   0.0000   0.0000
     0.0000   0.0000   0.0000   0.0000   0.0000   0.0000   0.0000   0.0000
     0.0000

          k =-0.3750 0.3750-0.3750 (   256 PWs)   bands (ev):

    -4.0022   0.3133   5.2370   5.2370   8.0799   9.8140   9.8140  14.0947
    15.0884  15.0884  16.0324  20.3583  20.3583  20.4245  23.1033  25.1164
    25.1164  29.3028  30.4448  30.6101  30.6101  33.5313  33.5313  35.0527
    35.0527

     occupation numbers 
     1.0000   1.0000   1.0000   1.0000   0.0000   0.0000   0.0000   0.0000
     0.0000   0.0000   0.0000   0.0000   0.0000   0.0000   0.0000   0.0000
     0.0000   0.0000   0.0000   0.0000   0.0000   0.0000   0.0000   0.0000
     0.0000

          k = 0.5000-0.5000 0.5000 (   266 PWs)   bands (ev):

    -3.3334  -0.7513   5.1209   5.1209   7.9529   9.6865   9.6865  13.9167
    17.1345  17.1345  17.6856  17.8413  17.8413  19.3730  25.8337  26.4245
    28.2584  28.2584  28.4988  28.4988  32.1472  33.1808  33.1808  34.0408
    34.0408

     occupation numbers 
     1.0000   1.0000   1.0000   1.0000   0.0000   0.0000   0.0000   0.0000
     0.0000   0.0000   0.0000   0.0000   0.0000   0.0000   0.0000   0.0000
     0.0000   0.0000   0.0000   0.0000   0.0000   0.0000   0.0000   0.0000
     0.0000

          k = 0.0000 0.2500 0.0000 (   267 PWs)   bands (ev):

    -5.4598   5.0549   5.5144   5.5144   8.3260  10.0902  10.0902  10.8515
    12.9522  14.5615  15.2356  18.0920  18.0920  18.5808  23.4633  27.1739
    27.1739  28.6549  29.2549  30.1629  33.0888  33.4578  33.4578  38.1634
    38.1635

     occupation numbers 
     1.0000   1.0000   1.0000   1.0000   0.0000   0.0000   0.0000   0.0000
     0.0000   0.0000   0.0000   0.0000   0.0000   0.0000   0.0000   0.0000
     0.0000   0.0000   0.0000   0.0000   0.0000   0.0000   0.0000   0.0000
     0.0000

          k =-0.1250 0.3750-0.1250 (   263 PWs)   bands (ev):

    -4.9824   3.1167   4.9896   5.0841   8.4714  10.1360  10.8729  11.1125
    13.9622  14.7087  16.2696  17.9054  19.5987  20.8856  24.1678  24.5958
    25.6532  28.1172  28.3199  29.5951  32.7613  33.9479  34.9909  36.3809
    38.2408

     occupation numbers 
     1.0000   1.0000   1.0000   1.0000   0.0000   0.0000   0.0000   0.0000
     0.0000   0.0000   0.0000   0.0000   0.0000   0.0000   0.0000   0.0000
     0.0000   0.0000   0.0000   0.0000   0.0000   0.0000   0.0000   0.0000
     0.0000

          k =-0.2500 0.5000-0.2500 (   267 PWs)   bands (ev):

    -4.1486   1.0034   4.4779   4.7142   8.5897  10.0363  10.8514  11.8351
    15.6683  15.8512  16.3339  19.8096  19.9857  21.7168  23.1639  24.1485
    25.1369  28.5881  29.1101  30.0366  31.3095  32.1734  34.2060  35.6218
    36.7929

     occupation numbers 
     1.0000   1.0000   1.0000   1.0000   0.0000   0.0000   0.0000   0.0000
     0.0000   0.0000   0.0000   0.0000   0.0000   0.0000   0.0000   0.0000
     0.0000   0.0000   0.0000   0.0000   0.0000   0.0000   0.0000   0.0000
     0.0000

          k = 0.6250-0.3750 0.6250 (   259 PWs)   bands (ev):

    -3.2489  -0.5060   4.0238   4.7432   8.5562   9.8825  10.4802  13.7526
    15.3156  17.0459  17.9494  18.1973  18.9588  21.5489  24.7727  26.2553
    26.7928  27.7230  28.6408  28.9596  31.2568  32.4107  33.0938  34.3110
    34.7460

     occupation numbers 
     1.0000   1.0000   1.0000   1.0000   0.0000   0.0000   0.0000   0.0000
     0.0000   0.0000   0.0000   0.0000   0.0000   0.0000   0.0000   0.0000
     0.0000   0.0000   0.0000   0.0000   0.0000   0.0000   0.0000   0.0000
     0.0000

          k = 0.5000-0.2500 0.5000 (   254 PWs)   bands (ev):

    -3.5023  -0.1190   3.8321   5.0522   8.7482   9.9812  10.2404  14.2568
    14.5835  15.5854  17.6294  18.9537  20.8872  21.1183  23.3363  25.1776
    27.1979  28.7053  29.0521  29.2383  31.4336  31.5628  33.9064  34.1350
    34.6146

     occupation numbers 
     1.0000   1.0000   1.0000   1.0000   0.0000   0.0000   0.0000   0.0000
     0.0000   0.0000   0.0000   0.0000   0.0000   0.0000   0.0000   0.0000
     0.0000   0.0000   0.0000   0.0000   0.0000   0.0000   0.0000   0.0000
     0.0000

          k = 0.3750-0.1250 0.3750 (   262 PWs)   bands (ev):

    -4.4608   1.6816   3.9717   5.5571   9.1251  10.0441  10.2173  12.6794
    12.9116  16.1256  16.5813  18.8031  20.5070  21.8562  23.0296  24.5382
    25.4177  28.0956  28.6540  29.5733  32.7061  33.2380  33.7019  36.2263
    36.3211

     occupation numbers 
     1.0000   1.0000   1.0000   1.0000   0.0000   0.0000   0.0000   0.0000
     0.0000   0.0000   0.0000   0.0000   0.0000   0.0000   0.0000   0.0000
     0.0000   0.0000   0.0000   0.0000   0.0000   0.0000   0.0000   0.0000
     0.0000

          k = 0.2500 0.0000 0.2500 (   273 PWs)   bands (ev):

    -5.1937   3.6695   4.6560   6.0531   9.4574   9.4813   9.7191  11.9584
    12.7719  14.5205  15.9816  17.5332  18.7470  20.9824  24.2481  24.4384
    27.4402  27.8035  28.3811  29.7264  32.8986  33.3776  35.4369  37.0939
    37.6723

     occupation numbers 
     1.0000   1.0000   1.0000   1.0000   0.0000   0.0000   0.0000   0.0000
     0.0000   0.0000   0.0000   0.0000   0.0000   0.0000   0.0000   0.0000
     0.0000   0.0000   0.0000   0.0000   0.0000   0.0000   0.0000   0.0000
     0.0000

          k = 0.0000 0.5000 0.0000 (   258 PWs)   bands (ev):

    -4.6304   2.8688   4.4020   4.4020   7.4119   9.4599  12.1920  12.1920
    14.5304  15.4957  17.6788  19.4601  19.4601  20.0986  23.9103  23.9103
    25.0974  26.7979  27.4675  31.5217  32.9061  34.0685  34.0685  36.1471
    36.1475

     occupation numbers 
     1.0000   1.0000   1.0000   1.0000   0.0000   0.0000   0.0000   0.0000
     0.0000   0.0000   0.0000   0.0000   0.0000   0.0000   0.0000   0.0000
     0.0000   0.0000   0.0000   0.0000   0.0000   0.0000   0.0000   0.0000
     0.0000

          k =-0.1250 0.6250-0.1250 (   257 PWs)   bands (ev):

    -3.9035   1.4168   3.5949   4.0752   7.6402   9.2081  12.4376  12.7088
    16.5621  16.6380  18.0097  19.7948  20.1101  21.3381  22.3654  23.5330
    25.0803  26.3581  28.4914  30.7376  31.6952  33.0593  33.0786  33.9101
    35.5878

     occupation numbers 
     1.0000   1.0000   1.0000   1.0000   0.0000   0.0000   0.0000   0.0000
     0.0000   0.0000   0.0000   0.0000   0.0000   0.0000   0.0000   0.0000
     0.0000   0.0000   0.0000   0.0000   0.0000   0.0000   0.0000   0.0000
     0.0000

          k = 0.7500-0.2500 0.7500 (   254 PWs)   bands (ev):

    -2.9484  -0.0715   2.7083   4.0795   7.8112  10.7959  12.1756  12.3483
    16.6180  17.0896  18.7731  19.1443  19.3950  23.2999  24.3792  25.1944
    25.9455  26.1089  26.4537  29.3557  30.4292  31.8688  32.0438  34.2267
    35.8974

     occupation numbers 
     1.0000   1.0000   1.0000   1.0000   0.0000   0.0000   0.0000   0.0000
     0.0000   0.0000   0.0000   0.0000   0.0000   0.0000   0.0000   0.0000
     0.0000   0.0000   0.0000   0.0000   0.0000   0.0000   0.0000   0.0000
     0.0000

          k = 0.6250-0.1250 0.6250 (   255 PWs)   bands (ev):

    -2.7297  -0.3455   2.2315   4.4087   8.1500  11.8553  11.8951  13.3748
    14.4244  14.4619  18.9250  21.4812  21.5449  22.5697  22.9454  25.0980
    26.0142  26.4804  28.3700  28.7132  31.3765  31.7788  32.5112  32.9644
    34.2271

     occupation numbers 
     1.0000   1.0000   1.0000   1.0000   0.0000   0.0000   0.0000   0.0000
     0.0000   0.0000   0.0000   0.0000   0.0000   0.0000   0.0000   0.0000
     0.0000   0.0000   0.0000   0.0000   0.0000   0.0000   0.0000   0.0000
     0.0000

          k = 0.5000 0.0000 0.5000 (   256 PWs)   bands (ev):

    -3.6428   0.8549   2.4645   4.9865   8.7954  11.1861  11.5198  12.5355
    12.8870  16.0662  19.0020  19.7613  19.8029  23.1188  23.7708  23.9705
    25.3508  27.7655  28.2965  30.5689  31.1929  32.0419  33.2304  33.7289
    33.9631

     occupation numbers 
     1.0000   1.0000   1.0000   1.0000   0.0000   0.0000   0.0000   0.0000
     0.0000   0.0000   0.0000   0.0000   0.0000   0.0000   0.0000   0.0000
     0.0000   0.0000   0.0000   0.0000   0.0000   0.0000   0.0000   0.0000
     0.0000

          k = 0.0000 0.7500 0.0000 (   254 PWs)   bands (ev):

    -3.2880   0.6146   3.6656   3.6656   6.8814   7.8112  14.5139  14.5139
    17.0440  17.1510  19.6043  19.6043  19.9604  21.8715  22.3900  23.2385
    23.2385  25.1844  29.9774  30.2893  30.7359  30.7359  31.7875  33.9898
    35.6144

     occupation numbers 
     1.0000   1.0000   1.0000   1.0000   0.0000   0.0000   0.0000   0.0000
     0.0000   0.0000   0.0000   0.0000   0.0000   0.0000   0.0000   0.0000
     0.0000   0.0000   0.0000   0.0000   0.0000   0.0000   0.0000   0.0000
     0.0000

          k = 0.8750-0.1250 0.8750 (   254 PWs)   bands (ev):

    -2.3676  -0.4903   2.7943   3.5872   7.1590   8.2658  14.7430  14.8106
    17.2375  17.3637  18.9425  19.3039  21.3767  21.6114  22.3700  25.1664
    25.2627  25.8823  27.2847  28.8993  29.1190  30.0768  30.7249  32.6007
    36.1514

     occupation numbers 
     1.0000   1.0000   1.0000   1.0000   0.0000   0.0000   0.0000   0.0000
     0.0000   0.0000   0.0000   0.0000   0.0000   0.0000   0.0000   0.0000
     0.0000   0.0000   0.0000   0.0000   0.0000   0.0000   0.0000   0.0000
     0.0000

          k = 0.7500 0.0000 0.7500 (   264 PWs)   bands (ev):

    -1.9077  -0.9116   1.8827   3.8510   7.4720  10.4707  13.9231  14.4583
    14.6473  15.0067  21.1162  21.5874  22.1028  22.1637  22.2696  23.5791
    26.2682  26.3742  28.1056  28.1649  29.1660  29.6281  31.7829  32.4760
    35.5503

     occupation numbers 
     1.0000   1.0000   1.0000   1.0000   0.0000   0.0000   0.0000   0.0000
     0.0000   0.0000   0.0000   0.0000   0.0000   0.0000   0.0000   0.0000
     0.0000   0.0000   0.0000   0.0000   0.0000   0.0000   0.0000   0.0000
     0.0000

          k = 0.0000-1.0000 0.0000 (   254 PWs)   bands (ev):

    -1.4981  -1.4981   3.4127   3.4127   6.9649   6.9649  16.5725  16.5725
    17.5762  17.5762  19.1715  19.1716  19.4196  19.4197  25.3472  25.3472
    26.1736  26.1736  26.8208  26.8208  27.7617  27.7617  32.2927  32.2927
    36.2935

     occupation numbers 
     1.0000   1.0000   1.0000   1.0000   0.0000   0.0000   0.0000   0.0000
     0.0000   0.0000   0.0000   0.0000   0.0000   0.0000   0.0000   0.0000
     0.0000   0.0000   0.0000   0.0000   0.0000   0.0000   0.0000   0.0000
     0.0000

          k =-0.2500 0.5000 0.0000 (   268 PWs)   bands (ev):

    -4.3830   2.0603   3.5403   4.8822   8.7726  10.3115  10.5280  11.9165
    14.2500  16.7546  17.3954  18.4969  20.3559  21.4813  22.4337  24.6973
    25.9381  27.0922  28.3389  29.8839  31.6370  32.7395  34.4852  35.4501
    36.2357

     occupation numbers 
     1.0000   1.0000   1.0000   1.0000   0.0000   0.0000   0.0000   0.0000
     0.0000   0.0000   0.0000   0.0000   0.0000   0.0000   0.0000   0.0000
     0.0000   0.0000   0.0000   0.0000   0.0000   0.0000   0.0000   0.0000
     0.0000

          k = 0.6250-0.3750 0.8750 (   259 PWs)   bands (ev):

    -3.4637   0.4667   2.9312   4.3587   9.2152   9.9145  11.3971  12.3620
    15.4992  16.1547  18.3870  19.4635  20.7075  21.5970  23.7670  24.8156
    25.6285  27.5651  28.4709  29.4045  30.7875  32.1800  32.5430  33.7376
    35.3801

     occupation numbers 
     1.0000   1.0000   1.0000   1.0000   0.0000   0.0000   0.0000   0.0000
     0.0000   0.0000   0.0000   0.0000   0.0000   0.0000   0.0000   0.0000
     0.0000   0.0000   0.0000   0.0000   0.0000   0.0000   0.0000   0.0000
     0.0000

          k = 0.5000-0.2500 0.7500 (   254 PWs)   bands (ev):

    -2.7789  -0.5158   2.8123   4.1190   9.4414   9.4525  12.3418  13.5313
    13.8100  17.0437  18.1786  18.8101  22.0480  22.1458  24.6523  24.9544
    26.0487  27.4195  27.6116  28.6994  31.5329  32.0603  32.0766  32.5808
    34.9327

     occupation numbers 
     1.0000   1.0000   1.0000   1.0000   0.0000   0.0000   0.0000   0.0000
     0.0000   0.0000   0.0000   0.0000   0.0000   0.0000   0.0000   0.0000
     0.0000   0.0000   0.0000   0.0000   0.0000   0.0000   0.0000   0.0000
     0.0000

          k = 0.7500-0.2500 1.0000 (   253 PWs)   bands (ev):

    -3.0813   0.3907   2.8725   3.4951   8.2557   8.9540  12.1773  14.4624
    16.6966  16.7037  19.4115  19.8767  20.6247  21.0699  23.1151  23.6908
    26.0786  26.5034  28.4212  28.4442  29.9988  30.8018  32.8451  34.2574
    34.7933

     occupation numbers 
     1.0000   1.0000   1.0000   1.0000   0.0000   0.0000   0.0000   0.0000
     0.0000   0.0000   0.0000   0.0000   0.0000   0.0000   0.0000   0.0000
     0.0000   0.0000   0.0000   0.0000   0.0000   0.0000   0.0000   0.0000
     0.0000

          k = 0.6250-0.1250 0.8750 (   258 PWs)   bands (ev):

    -2.1779  -0.6034   2.1422   3.2850   8.6980  10.6207  11.6858  13.8669
    14.8819  17.6145  18.7440  20.6869  21.9269  22.5666  24.0119  24.7805
    25.3446  26.0149  27.5599  28.3527  29.3152  30.7667  31.5141  34.2049
    34.5346

     occupation numbers 
     1.0000   1.0000   1.0000   1.0000   0.0000   0.0000   0.0000   0.0000
     0.0000   0.0000   0.0000   0.0000   0.0000   0.0000   0.0000   0.0000
     0.0000   0.0000   0.0000   0.0000   0.0000   0.0000   0.0000   0.0000
     0.0000

          k = 0.5000 0.0000 0.7500 (   262 PWs)   bands (ev):

    -2.5418  -0.2355   1.9665   3.6751   9.1965  10.9115  11.6025  13.4392
    14.3307  15.7316  20.5918  20.7335  20.9850  22.9049  23.0873  24.9824
    25.6706  26.5579  27.7296  28.5490  29.9202  31.1479  32.4150  33.6350
    34.7911

     occupation numbers 
     1.0000   1.0000   1.0000   1.0000   0.0000   0.0000   0.0000   0.0000
     0.0000   0.0000   0.0000   0.0000   0.0000   0.0000   0.0000   0.0000
     0.0000   0.0000   0.0000   0.0000   0.0000   0.0000   0.0000   0.0000
     0.0000

          k =-0.2500-1.0000 0.0000 (   254 PWs)   bands (ev):

    -1.4134  -1.4133   2.8131   2.8131   8.2663   8.2663  14.2953  14.2953
    17.1015  17.1015  19.4179  19.4179  22.1336  22.1336  23.8829  23.8830
    25.4493  25.4493  28.3525  28.3525  29.4621  29.4622  30.7424  30.7424
    36.7568

     occupation numbers 
     1.0000   1.0000   1.0000   1.0000   0.0000   0.0000   0.0000   0.0000
     0.0000   0.0000   0.0000   0.0000   0.0000   0.0000   0.0000   0.0000
     0.0000   0.0000   0.0000   0.0000   0.0000   0.0000   0.0000   0.0000
     0.0000

          k =-0.5000-1.0000 0.0000 (   264 PWs)   bands (ev):

    -1.3247  -1.3246   2.3493   2.3493  10.5893  10.5894  11.4107  11.4108
    17.1004  17.1004  19.5608  19.5608  22.8952  22.8952  24.9452  24.9453
    25.5124  25.5124  26.4556  26.4556  30.2490  30.2490  34.1336  34.1336
    34.3043

     occupation numbers 
     1.0000   1.0000   1.0000   1.0000   0.0000   0.0000   0.0000   0.0000
     0.0000   0.0000   0.0000   0.0000   0.0000   0.0000   0.0000   0.0000
     0.0000   0.0000   0.0000   0.0000   0.0000   0.0000   0.0000   0.0000
     0.0000

     highest occupied, lowest unoccupied level (ev):     6.3571    6.8814

     Writing output data file run_output/Si.save/

     init_run     :      0.07s CPU      0.07s WALL (       1 calls)
     electrons    :      2.89s CPU      2.93s WALL (       1 calls)

     Called by init_run:
     wfcinit      :      0.00s CPU      0.00s WALL (       1 calls)
     wfcinit:atom :      0.00s CPU      0.00s WALL (      29 calls)
     wfcinit:wfcr :      0.21s CPU      0.22s WALL (      29 calls)
     potinit      :      0.00s CPU      0.00s WALL (       1 calls)
     hinit0       :      0.06s CPU      0.06s WALL (       1 calls)

     Called by electrons:
     c_bands      :      2.88s CPU      2.93s WALL (       1 calls)
     v_of_rho     :      0.00s CPU      0.00s WALL (       1 calls)
     v_h          :      0.00s CPU      0.00s WALL (       1 calls)
     v_xc         :      0.00s CPU      0.00s WALL (       1 calls)

     Called by c_bands:
     init_us_2    :      0.00s CPU      0.00s WALL (      29 calls)
     cegterg      :      2.65s CPU      2.69s WALL (      30 calls)

     Called by sum_band:

     Called by *egterg:
     cdiaghg      :      0.57s CPU      0.58s WALL (     446 calls)
     cegterg:over :      0.29s CPU      0.29s WALL (     417 calls)
     cegterg:upda :      0.15s CPU      0.15s WALL (     417 calls)
     cegterg:last :      0.30s CPU      0.30s WALL (     235 calls)
     h_psi        :      1.46s CPU      1.50s WALL (     476 calls)
     g_psi        :      0.02s CPU      0.02s WALL (     417 calls)

     Called by h_psi:
     h_psi:calbec :      0.03s CPU      0.03s WALL (     476 calls)
     vloc_psi     :      1.40s CPU      1.43s WALL (     476 calls)
     add_vuspsi   :      0.03s CPU      0.03s WALL (     476 calls)

     General routines
     calbec       :      0.03s CPU      0.03s WALL (     476 calls)
     fft          :      0.00s CPU      0.00s WALL (       3 calls)
     fftw         :      1.31s CPU      1.33s WALL (   13052 calls)
     davcio       :      0.00s CPU      0.00s WALL (      58 calls)

     Parallel routines

     PWSCF        :      3.24s CPU      3.41s WALL


   This run was terminated on:  18:10:34  23Feb2021            

=------------------------------------------------------------------------------=
   JOB DONE.
=------------------------------------------------------------------------------=
