
     Program PWSCF v.6.7MaX starts on  4Oct2021 at 19:37:49 

     This program is part of the open-source Quantum ESPRESSO suite
     for quantum simulation of materials; please cite
         "P. Giannozzi et al., J. Phys.:Condens. Matter 21 395502 (2009);
         "P. Giannozzi et al., J. Phys.:Condens. Matter 29 465901 (2017);
          URL http://www.quantum-espresso.org", 
     in publications or presentations arising from this work. More details at
     http://www.quantum-espresso.org/quote

     Parallel version (MPI), running on    80 processors

     MPI processes distributed on     3 nodes
     K-points division:     npool     =       8
     R & G space division:  proc/nbgrp/npool/nimage =      10
     Waiting for input...
     Reading input from standard input

     Current dimensions of program PWSCF are:
     Max number of different atomic species (ntypx) = 10
     Max number of k-points (npk) =  40000
     Max angular momentum in pseudopotentials (lmaxx) =  3

     Atomic positions and unit cell read from directory:
     run_output/GaAs.save/
     Atomic positions from file used, from input discarded


     Subspace diagonalization in iterative solution of the eigenvalue problem:
     one sub-group per band group will be used
     scalapack distributed-memory algorithm (size of sub-group:  3*  3 procs)

     Message from routine setup:
     using ibrav=0 with symmetry is DISCOURAGED, use correct ibrav instead

     Parallelization info
     --------------------
     sticks:   dense  smooth     PW     G-vecs:    dense   smooth      PW
     Min         106     106     31                 2346     2346     382
     Max         107     107     32                 2351     2351     387
     Sum        1069    1069    313                23505    23505    3839



     bravais-lattice index     =            0
     lattice parameter (alat)  =       7.4893  a.u.
     unit-cell volume          =     297.0321 (a.u.)^3
     number of atoms/cell      =            2
     number of atomic types    =            2
     number of electrons       =         8.00
     number of Kohn-Sham states=           20
     kinetic-energy cutoff     =      70.0000  Ry
     charge density cutoff     =     280.0000  Ry
     Exchange-correlation=  SLA  PZ   NOGX NOGC
                           (   1   1   0   0   0   0   0)

     celldm(1)=   7.489269  celldm(2)=   0.000000  celldm(3)=   0.000000
     celldm(4)=   0.000000  celldm(5)=   0.000000  celldm(6)=   0.000000

     crystal axes: (cart. coord. in units of alat)
               a(1) = (   0.000000   0.707107   0.707107 )  
               a(2) = (   0.707107   0.000000   0.707107 )  
               a(3) = (   0.707107   0.707107   0.000000 )  

     reciprocal axes: (cart. coord. in units 2 pi/alat)
               b(1) = ( -0.707107  0.707107  0.707107 )  
               b(2) = (  0.707107 -0.707107  0.707107 )  
               b(3) = (  0.707107  0.707107 -0.707107 )  


     PseudoPot. # 1 for As read from file:
     PPs/As.pz-bhs.UPF
     MD5 check sum: 451cd3365afcfc94d28b1934951c34a8
     Pseudo is Norm-conserving, Zval =  5.0
     Generated by new atomic code, or converted to UPF format
     Using radial grid of  525 points,  2 beta functions with: 
                l(1) =   0
                l(2) =   1

     PseudoPot. # 2 for Ga read from file:
     PPs/Ga_hamlu.fhi.UPF
     MD5 check sum: 4ad1663a8a964d7f0e56f5e6e9567420
     Pseudo is Norm-conserving + core correction, Zval =  3.0
     Generated by new atomic code, or converted to UPF format
     Using radial grid of  529 points,  2 beta functions with: 
                l(1) =   1
                l(2) =   2

     atomic species   valence    mass     pseudopotential
        As             5.00    74.92160     As( 1.00)
        Ga             3.00    69.72300     Ga( 1.00)

     24 Sym. Ops. (no inversion) found


                                    s                        frac. trans.

      isym =  1     identity                                     

 cryst.   s( 1) = (     1          0          0      )
                  (     0          1          0      )
                  (     0          0          1      )

 cart.    s( 1) = (  1.0000000 -0.0000000  0.0000000 )
                  ( -0.0000000  1.0000000  0.0000000 )
                  ( -0.0000000  0.0000000  1.0000000 )


      isym =  2     180 deg rotation - cart. axis [0,0,1]        

 cryst.   s( 2) = (     0          1         -1      )
                  (     1          0         -1      )
                  (     0          0         -1      )

 cart.    s( 2) = ( -1.0000000  0.0000000  0.0000000 )
                  (  0.0000000 -1.0000000  0.0000000 )
                  (  0.0000000 -0.0000000  1.0000000 )


      isym =  3     180 deg rotation - cart. axis [0,1,0]        

 cryst.   s( 3) = (     0         -1          1      )
                  (     0         -1          0      )
                  (     1         -1          0      )

 cart.    s( 3) = ( -1.0000000 -0.0000000 -0.0000000 )
                  (  0.0000000  1.0000000 -0.0000000 )
                  (  0.0000000  0.0000000 -1.0000000 )


      isym =  4     180 deg rotation - cart. axis [1,0,0]        

 cryst.   s( 4) = (    -1          0          0      )
                  (    -1          0          1      )
                  (    -1          1          0      )

 cart.    s( 4) = (  1.0000000  0.0000000 -0.0000000 )
                  ( -0.0000000 -1.0000000 -0.0000000 )
                  ( -0.0000000 -0.0000000 -1.0000000 )


      isym =  5     120 deg rotation - cart. axis [-1,-1,-1]     

 cryst.   s( 5) = (     0          0          1      )
                  (     1          0          0      )
                  (     0          1          0      )

 cart.    s( 5) = (  0.0000000  1.0000000 -0.0000000 )
                  (  0.0000000 -0.0000000  1.0000000 )
                  (  1.0000000 -0.0000000  0.0000000 )


      isym =  6     120 deg rotation - cart. axis [-1,1,1]       

 cryst.   s( 6) = (     1         -1          0      )
                  (     0         -1          1      )
                  (     0         -1          0      )

 cart.    s( 6) = ( -0.0000000 -1.0000000 -0.0000000 )
                  ( -0.0000000  0.0000000  1.0000000 )
                  ( -1.0000000  0.0000000  0.0000000 )


      isym =  7     120 deg rotation - cart. axis [1,1,-1]       

 cryst.   s( 7) = (    -1          1          0      )
                  (    -1          0          0      )
                  (    -1          0          1      )

 cart.    s( 7) = ( -0.0000000  1.0000000  0.0000000 )
                  ( -0.0000000 -0.0000000 -1.0000000 )
                  ( -1.0000000 -0.0000000 -0.0000000 )


      isym =  8     120 deg rotation - cart. axis [1,-1,1]       

 cryst.   s( 8) = (     0          0         -1      )
                  (     0          1         -1      )
                  (     1          0         -1      )

 cart.    s( 8) = (  0.0000000 -1.0000000  0.0000000 )
                  (  0.0000000  0.0000000 -1.0000000 )
                  (  1.0000000  0.0000000 -0.0000000 )


      isym =  9     120 deg rotation - cart. axis [1,1,1]        

 cryst.   s( 9) = (     0          1          0      )
                  (     0          0          1      )
                  (     1          0          0      )

 cart.    s( 9) = ( -0.0000000  0.0000000  1.0000000 )
                  (  1.0000000  0.0000000 -0.0000000 )
                  (  0.0000000  1.0000000 -0.0000000 )


      isym = 10     120 deg rotation - cart. axis [-1,1,-1]      

 cryst.   s(10) = (    -1          0          1      )
                  (    -1          1          0      )
                  (    -1          0          0      )

 cart.    s(10) = (  0.0000000 -0.0000000  1.0000000 )
                  ( -1.0000000 -0.0000000 -0.0000000 )
                  ( -0.0000000 -1.0000000 -0.0000000 )


      isym = 11     120 deg rotation - cart. axis [1,-1,-1]      

 cryst.   s(11) = (     1          0         -1      )
                  (     0          0         -1      )
                  (     0          1         -1      )

 cart.    s(11) = (  0.0000000  0.0000000 -1.0000000 )
                  ( -1.0000000  0.0000000  0.0000000 )
                  ( -0.0000000  1.0000000  0.0000000 )


      isym = 12     120 deg rotation - cart. axis [-1,-1,1]      

 cryst.   s(12) = (     0         -1          0      )
                  (     1         -1          0      )
                  (     0         -1          1      )

 cart.    s(12) = ( -0.0000000 -0.0000000 -1.0000000 )
                  (  1.0000000 -0.0000000  0.0000000 )
                  (  0.0000000 -1.0000000  0.0000000 )


      isym = 13     inv. 180 deg rotation - cart. axis [1,1,0]   

 cryst.   s(13) = (     1          0         -1      )
                  (     0          1         -1      )
                  (     0          0         -1      )

 cart.    s(13) = (  0.0000000 -1.0000000  0.0000000 )
                  ( -1.0000000  0.0000000  0.0000000 )
                  ( -0.0000000  0.0000000  1.0000000 )


      isym = 14     inv. 180 deg rotation - cart. axis [1,-1,0]  

 cryst.   s(14) = (     0          1          0      )
                  (     1          0          0      )
                  (     0          0          1      )

 cart.    s(14) = ( -0.0000000  1.0000000  0.0000000 )
                  (  1.0000000 -0.0000000  0.0000000 )
                  (  0.0000000 -0.0000000  1.0000000 )


      isym = 15     inv.  90 deg rotation - cart. axis [0,0,-1]  

 cryst.   s(15) = (     0         -1          0      )
                  (     0         -1          1      )
                  (     1         -1          0      )

 cart.    s(15) = ( -0.0000000 -1.0000000 -0.0000000 )
                  (  1.0000000  0.0000000 -0.0000000 )
                  (  0.0000000  0.0000000 -1.0000000 )


      isym = 16     inv.  90 deg rotation - cart. axis [0,0,1]   

 cryst.   s(16) = (    -1          0          1      )
                  (    -1          0          0      )
                  (    -1          1          0      )

 cart.    s(16) = (  0.0000000  1.0000000 -0.0000000 )
                  ( -1.0000000 -0.0000000 -0.0000000 )
                  ( -0.0000000 -0.0000000 -1.0000000 )


      isym = 17     inv. 180 deg rotation - cart. axis [1,0,1]   

 cryst.   s(17) = (     1         -1          0      )
                  (     0         -1          0      )
                  (     0         -1          1      )

 cart.    s(17) = ( -0.0000000 -0.0000000 -1.0000000 )
                  ( -0.0000000  1.0000000  0.0000000 )
                  ( -1.0000000  0.0000000  0.0000000 )


      isym = 18     inv. 180 deg rotation - cart. axis [-1,0,1]  

 cryst.   s(18) = (     0          0          1      )
                  (     0          1          0      )
                  (     1          0          0      )

 cart.    s(18) = (  0.0000000 -0.0000000  1.0000000 )
                  (  0.0000000  1.0000000 -0.0000000 )
                  (  1.0000000  0.0000000 -0.0000000 )


      isym = 19     inv.  90 deg rotation - cart. axis [0,1,0]   

 cryst.   s(19) = (     0          0         -1      )
                  (     1          0         -1      )
                  (     0          1         -1      )

 cart.    s(19) = (  0.0000000  0.0000000 -1.0000000 )
                  (  0.0000000 -1.0000000  0.0000000 )
                  (  1.0000000 -0.0000000  0.0000000 )


      isym = 20     inv.  90 deg rotation - cart. axis [0,-1,0]  

 cryst.   s(20) = (    -1          1          0      )
                  (    -1          0          1      )
                  (    -1          0          0      )

 cart.    s(20) = ( -0.0000000  0.0000000  1.0000000 )
                  ( -0.0000000 -1.0000000 -0.0000000 )
                  ( -1.0000000 -0.0000000 -0.0000000 )


      isym = 21     inv. 180 deg rotation - cart. axis [0,1,1]   

 cryst.   s(21) = (    -1          0          0      )
                  (    -1          1          0      )
                  (    -1          0          1      )

 cart.    s(21) = (  1.0000000 -0.0000000  0.0000000 )
                  ( -0.0000000 -0.0000000 -1.0000000 )
                  ( -0.0000000 -1.0000000 -0.0000000 )


      isym = 22     inv. 180 deg rotation - cart. axis [0,1,-1]  

 cryst.   s(22) = (     1          0          0      )
                  (     0          0          1      )
                  (     0          1          0      )

 cart.    s(22) = (  1.0000000  0.0000000 -0.0000000 )
                  ( -0.0000000  0.0000000  1.0000000 )
                  ( -0.0000000  1.0000000  0.0000000 )


      isym = 23     inv.  90 deg rotation - cart. axis [-1,0,0]  

 cryst.   s(23) = (     0          1         -1      )
                  (     0          0         -1      )
                  (     1          0         -1      )

 cart.    s(23) = ( -1.0000000  0.0000000  0.0000000 )
                  (  0.0000000  0.0000000 -1.0000000 )
                  (  0.0000000  1.0000000 -0.0000000 )


      isym = 24     inv.  90 deg rotation - cart. axis [1,0,0]   

 cryst.   s(24) = (     0         -1          1      )
                  (     1         -1          0      )
                  (     0         -1          0      )

 cart.    s(24) = ( -1.0000000 -0.0000000 -0.0000000 )
                  (  0.0000000 -0.0000000  1.0000000 )
                  (  0.0000000 -1.0000000  0.0000000 )


   Cartesian axes

     site n.     atom                  positions (alat units)
         1           Ga  tau(   1) = (   0.0000000   0.0000000   0.0000000  )
         2           As  tau(   2) = (   0.3535534   1.0606602   1.0606602  )

   Crystallographic axes

     site n.     atom                  positions (cryst. coord.)
         1           Ga  tau(   1) = (  0.0000000  0.0000000  0.0000000  )
         2           As  tau(   2) = (  1.2500000  0.2500000  0.2500000  )

     number of k points=  5216
                       cart. coord. in units 2pi/alat
        k(    1) = (   0.0000000   0.0000000   0.0000000), wk =   0.0000093
        k(    2) = (   0.0117851   0.0117851  -0.0117851), wk =   0.0000741
        k(    3) = (   0.0235702   0.0235702  -0.0235702), wk =   0.0000741
        k(    4) = (   0.0353553   0.0353553  -0.0353553), wk =   0.0000741
        k(    5) = (   0.0471405   0.0471405  -0.0471405), wk =   0.0000741
        k(    6) = (   0.0589256   0.0589256  -0.0589256), wk =   0.0000741
        k(    7) = (   0.0707107   0.0707107  -0.0707107), wk =   0.0000741
        k(    8) = (   0.0824958   0.0824958  -0.0824958), wk =   0.0000741
        k(    9) = (   0.0942809   0.0942809  -0.0942809), wk =   0.0000741
        k(   10) = (   0.1060660   0.1060660  -0.1060660), wk =   0.0000741
        k(   11) = (   0.1178511   0.1178511  -0.1178511), wk =   0.0000741
        k(   12) = (   0.1296362   0.1296362  -0.1296362), wk =   0.0000741
        k(   13) = (   0.1414214   0.1414214  -0.1414214), wk =   0.0000741
        k(   14) = (   0.1532065   0.1532065  -0.1532065), wk =   0.0000741
        k(   15) = (   0.1649916   0.1649916  -0.1649916), wk =   0.0000741
        k(   16) = (   0.1767767   0.1767767  -0.1767767), wk =   0.0000741
        k(   17) = (   0.1885618   0.1885618  -0.1885618), wk =   0.0000741
        k(   18) = (   0.2003469   0.2003469  -0.2003469), wk =   0.0000741
        k(   19) = (   0.2121320   0.2121320  -0.2121320), wk =   0.0000741
        k(   20) = (   0.2239171   0.2239171  -0.2239171), wk =   0.0000741
        k(   21) = (   0.2357023   0.2357023  -0.2357023), wk =   0.0000741
        k(   22) = (   0.2474874   0.2474874  -0.2474874), wk =   0.0000741
        k(   23) = (   0.2592725   0.2592725  -0.2592725), wk =   0.0000741
        k(   24) = (   0.2710576   0.2710576  -0.2710576), wk =   0.0000741
        k(   25) = (   0.2828427   0.2828427  -0.2828427), wk =   0.0000741
        k(   26) = (   0.2946278   0.2946278  -0.2946278), wk =   0.0000741
        k(   27) = (   0.3064129   0.3064129  -0.3064129), wk =   0.0000741
        k(   28) = (   0.3181981   0.3181981  -0.3181981), wk =   0.0000741
        k(   29) = (   0.3299832   0.3299832  -0.3299832), wk =   0.0000741
        k(   30) = (   0.3417683   0.3417683  -0.3417683), wk =   0.0000741
        k(   31) = (  -0.3535534  -0.3535534   0.3535534), wk =   0.0000370
        k(   32) = (   0.0235702   0.0000000   0.0000000), wk =   0.0000556
        k(   33) = (   0.0353553   0.0117851  -0.0117851), wk =   0.0002222
        k(   34) = (   0.0471405   0.0235702  -0.0235702), wk =   0.0002222
        k(   35) = (   0.0589256   0.0353553  -0.0353553), wk =   0.0002222
        k(   36) = (   0.0707107   0.0471405  -0.0471405), wk =   0.0002222
        k(   37) = (   0.0824958   0.0589256  -0.0589256), wk =   0.0002222
        k(   38) = (   0.0942809   0.0707107  -0.0707107), wk =   0.0002222
        k(   39) = (   0.1060660   0.0824958  -0.0824958), wk =   0.0002222
        k(   40) = (   0.1178511   0.0942809  -0.0942809), wk =   0.0002222
        k(   41) = (   0.1296362   0.1060660  -0.1060660), wk =   0.0002222
        k(   42) = (   0.1414214   0.1178511  -0.1178511), wk =   0.0002222
        k(   43) = (   0.1532065   0.1296362  -0.1296362), wk =   0.0002222
        k(   44) = (   0.1649916   0.1414214  -0.1414214), wk =   0.0002222
        k(   45) = (   0.1767767   0.1532065  -0.1532065), wk =   0.0002222
        k(   46) = (   0.1885618   0.1649916  -0.1649916), wk =   0.0002222
        k(   47) = (   0.2003469   0.1767767  -0.1767767), wk =   0.0002222
        k(   48) = (   0.2121320   0.1885618  -0.1885618), wk =   0.0002222
        k(   49) = (   0.2239171   0.2003469  -0.2003469), wk =   0.0002222
        k(   50) = (   0.2357023   0.2121320  -0.2121320), wk =   0.0002222
        k(   51) = (   0.2474874   0.2239171  -0.2239171), wk =   0.0002222
        k(   52) = (   0.2592725   0.2357023  -0.2357023), wk =   0.0002222
        k(   53) = (   0.2710576   0.2474874  -0.2474874), wk =   0.0002222
        k(   54) = (   0.2828427   0.2592725  -0.2592725), wk =   0.0002222
        k(   55) = (   0.2946278   0.2710576  -0.2710576), wk =   0.0002222
        k(   56) = (   0.3064129   0.2828427  -0.2828427), wk =   0.0002222
        k(   57) = (   0.3181981   0.2946278  -0.2946278), wk =   0.0002222
        k(   58) = (   0.3299832   0.3064129  -0.3064129), wk =   0.0002222
        k(   59) = (   0.3417683   0.3181981  -0.3181981), wk =   0.0002222
        k(   60) = (   0.3535534   0.3299832  -0.3299832), wk =   0.0002222
        k(   61) = (  -0.3417683  -0.3653385   0.3653385), wk =   0.0002222
        k(   62) = (  -0.3299832  -0.3535534   0.3535534), wk =   0.0002222
        k(   63) = (  -0.3181981  -0.3417683   0.3417683), wk =   0.0002222
        k(   64) = (  -0.3064129  -0.3299832   0.3299832), wk =   0.0002222
        k(   65) = (  -0.2946278  -0.3181981   0.3181981), wk =   0.0002222
        k(   66) = (  -0.2828427  -0.3064129   0.3064129), wk =   0.0002222
        k(   67) = (  -0.2710576  -0.2946278   0.2946278), wk =   0.0002222
        k(   68) = (  -0.2592725  -0.2828427   0.2828427), wk =   0.0002222
        k(   69) = (  -0.2474874  -0.2710576   0.2710576), wk =   0.0002222
        k(   70) = (  -0.2357023  -0.2592725   0.2592725), wk =   0.0002222
        k(   71) = (  -0.2239171  -0.2474874   0.2474874), wk =   0.0002222
        k(   72) = (  -0.2121320  -0.2357023   0.2357023), wk =   0.0002222
        k(   73) = (  -0.2003469  -0.2239171   0.2239171), wk =   0.0002222
        k(   74) = (  -0.1885618  -0.2121320   0.2121320), wk =   0.0002222
        k(   75) = (  -0.1767767  -0.2003469   0.2003469), wk =   0.0002222
        k(   76) = (  -0.1649916  -0.1885618   0.1885618), wk =   0.0002222
        k(   77) = (  -0.1532065  -0.1767767   0.1767767), wk =   0.0002222
        k(   78) = (  -0.1414214  -0.1649916   0.1649916), wk =   0.0002222
        k(   79) = (  -0.1296362  -0.1532065   0.1532065), wk =   0.0002222
        k(   80) = (  -0.1178511  -0.1414214   0.1414214), wk =   0.0002222
        k(   81) = (  -0.1060660  -0.1296362   0.1296362), wk =   0.0002222
        k(   82) = (  -0.0942809  -0.1178511   0.1178511), wk =   0.0002222
        k(   83) = (  -0.0824958  -0.1060660   0.1060660), wk =   0.0002222
        k(   84) = (  -0.0707107  -0.0942809   0.0942809), wk =   0.0002222
        k(   85) = (  -0.0589256  -0.0824958   0.0824958), wk =   0.0002222
        k(   86) = (  -0.0471405  -0.0707107   0.0707107), wk =   0.0002222
        k(   87) = (  -0.0353553  -0.0589256   0.0589256), wk =   0.0002222
        k(   88) = (  -0.0235702  -0.0471405   0.0471405), wk =   0.0002222
        k(   89) = (  -0.0117851  -0.0353553   0.0353553), wk =   0.0002222
        k(   90) = (  -0.0000000  -0.0235702   0.0235702), wk =   0.0001111
        k(   91) = (   0.0471405   0.0000000   0.0000000), wk =   0.0000556
        k(   92) = (   0.0589256   0.0117851  -0.0117851), wk =   0.0002222
        k(   93) = (   0.0707107   0.0235702  -0.0235702), wk =   0.0002222
        k(   94) = (   0.0824958   0.0353553  -0.0353553), wk =   0.0002222
        k(   95) = (   0.0942809   0.0471405  -0.0471405), wk =   0.0002222
        k(   96) = (   0.1060660   0.0589256  -0.0589256), wk =   0.0002222
        k(   97) = (   0.1178511   0.0707107  -0.0707107), wk =   0.0002222
        k(   98) = (   0.1296362   0.0824958  -0.0824958), wk =   0.0002222
        k(   99) = (   0.1414214   0.0942809  -0.0942809), wk =   0.0002222
        k(  100) = (   0.1532065   0.1060660  -0.1060660), wk =   0.0002222
        k(  101) = (   0.1649916   0.1178511  -0.1178511), wk =   0.0002222
        k(  102) = (   0.1767767   0.1296362  -0.1296362), wk =   0.0002222
        k(  103) = (   0.1885618   0.1414214  -0.1414214), wk =   0.0002222
        k(  104) = (   0.2003469   0.1532065  -0.1532065), wk =   0.0002222
        k(  105) = (   0.2121320   0.1649916  -0.1649916), wk =   0.0002222
        k(  106) = (   0.2239171   0.1767767  -0.1767767), wk =   0.0002222
        k(  107) = (   0.2357023   0.1885618  -0.1885618), wk =   0.0002222
        k(  108) = (   0.2474874   0.2003469  -0.2003469), wk =   0.0002222
        k(  109) = (   0.2592725   0.2121320  -0.2121320), wk =   0.0002222
        k(  110) = (   0.2710576   0.2239171  -0.2239171), wk =   0.0002222
        k(  111) = (   0.2828427   0.2357023  -0.2357023), wk =   0.0002222
        k(  112) = (   0.2946278   0.2474874  -0.2474874), wk =   0.0002222
        k(  113) = (   0.3064129   0.2592725  -0.2592725), wk =   0.0002222
        k(  114) = (   0.3181981   0.2710576  -0.2710576), wk =   0.0002222
        k(  115) = (   0.3299832   0.2828427  -0.2828427), wk =   0.0002222
        k(  116) = (   0.3417683   0.2946278  -0.2946278), wk =   0.0002222
        k(  117) = (   0.3535534   0.3064129  -0.3064129), wk =   0.0002222
        k(  118) = (   0.3653385   0.3181981  -0.3181981), wk =   0.0002222
        k(  119) = (  -0.3299832  -0.3771236   0.3771236), wk =   0.0002222
        k(  120) = (  -0.3181981  -0.3653385   0.3653385), wk =   0.0002222
        k(  121) = (  -0.3064129  -0.3535534   0.3535534), wk =   0.0002222
        k(  122) = (  -0.2946278  -0.3417683   0.3417683), wk =   0.0002222
        k(  123) = (  -0.2828427  -0.3299832   0.3299832), wk =   0.0002222
        k(  124) = (  -0.2710576  -0.3181981   0.3181981), wk =   0.0002222
        k(  125) = (  -0.2592725  -0.3064129   0.3064129), wk =   0.0002222
        k(  126) = (  -0.2474874  -0.2946278   0.2946278), wk =   0.0002222
        k(  127) = (  -0.2357023  -0.2828427   0.2828427), wk =   0.0002222
        k(  128) = (  -0.2239171  -0.2710576   0.2710576), wk =   0.0002222
        k(  129) = (  -0.2121320  -0.2592725   0.2592725), wk =   0.0002222
        k(  130) = (  -0.2003469  -0.2474874   0.2474874), wk =   0.0002222
        k(  131) = (  -0.1885618  -0.2357023   0.2357023), wk =   0.0002222
        k(  132) = (  -0.1767767  -0.2239171   0.2239171), wk =   0.0002222
        k(  133) = (  -0.1649916  -0.2121320   0.2121320), wk =   0.0002222
        k(  134) = (  -0.1532065  -0.2003469   0.2003469), wk =   0.0002222
        k(  135) = (  -0.1414214  -0.1885618   0.1885618), wk =   0.0002222
        k(  136) = (  -0.1296362  -0.1767767   0.1767767), wk =   0.0002222
        k(  137) = (  -0.1178511  -0.1649916   0.1649916), wk =   0.0002222
        k(  138) = (  -0.1060660  -0.1532065   0.1532065), wk =   0.0002222
        k(  139) = (  -0.0942809  -0.1414214   0.1414214), wk =   0.0002222
        k(  140) = (  -0.0824958  -0.1296362   0.1296362), wk =   0.0002222
        k(  141) = (  -0.0707107  -0.1178511   0.1178511), wk =   0.0002222
        k(  142) = (  -0.0589256  -0.1060660   0.1060660), wk =   0.0002222
        k(  143) = (  -0.0471405  -0.0942809   0.0942809), wk =   0.0002222
        k(  144) = (  -0.0353553  -0.0824958   0.0824958), wk =   0.0002222
        k(  145) = (  -0.0235702  -0.0707107   0.0707107), wk =   0.0002222
        k(  146) = (  -0.0117851  -0.0589256   0.0589256), wk =   0.0002222
        k(  147) = (   0.0000000  -0.0471405   0.0471405), wk =   0.0001111
        k(  148) = (   0.0707107   0.0000000   0.0000000), wk =   0.0000556
        k(  149) = (   0.0824958   0.0117851  -0.0117851), wk =   0.0002222
        k(  150) = (   0.0942809   0.0235702  -0.0235702), wk =   0.0002222
        k(  151) = (   0.1060660   0.0353553  -0.0353553), wk =   0.0002222
        k(  152) = (   0.1178511   0.0471405  -0.0471405), wk =   0.0002222
        k(  153) = (   0.1296362   0.0589256  -0.0589256), wk =   0.0002222
        k(  154) = (   0.1414214   0.0707107  -0.0707107), wk =   0.0002222
        k(  155) = (   0.1532065   0.0824958  -0.0824958), wk =   0.0002222
        k(  156) = (   0.1649916   0.0942809  -0.0942809), wk =   0.0002222
        k(  157) = (   0.1767767   0.1060660  -0.1060660), wk =   0.0002222
        k(  158) = (   0.1885618   0.1178511  -0.1178511), wk =   0.0002222
        k(  159) = (   0.2003469   0.1296362  -0.1296362), wk =   0.0002222
        k(  160) = (   0.2121320   0.1414214  -0.1414214), wk =   0.0002222
        k(  161) = (   0.2239171   0.1532065  -0.1532065), wk =   0.0002222
        k(  162) = (   0.2357023   0.1649916  -0.1649916), wk =   0.0002222
        k(  163) = (   0.2474874   0.1767767  -0.1767767), wk =   0.0002222
        k(  164) = (   0.2592725   0.1885618  -0.1885618), wk =   0.0002222
        k(  165) = (   0.2710576   0.2003469  -0.2003469), wk =   0.0002222
        k(  166) = (   0.2828427   0.2121320  -0.2121320), wk =   0.0002222
        k(  167) = (   0.2946278   0.2239171  -0.2239171), wk =   0.0002222
        k(  168) = (   0.3064129   0.2357023  -0.2357023), wk =   0.0002222
        k(  169) = (   0.3181981   0.2474874  -0.2474874), wk =   0.0002222
        k(  170) = (   0.3299832   0.2592725  -0.2592725), wk =   0.0002222
        k(  171) = (   0.3417683   0.2710576  -0.2710576), wk =   0.0002222
        k(  172) = (   0.3535534   0.2828427  -0.2828427), wk =   0.0002222
        k(  173) = (   0.3653385   0.2946278  -0.2946278), wk =   0.0002222
        k(  174) = (   0.3771236   0.3064129  -0.3064129), wk =   0.0002222
        k(  175) = (  -0.3181981  -0.3889087   0.3889087), wk =   0.0002222
        k(  176) = (  -0.3064129  -0.3771236   0.3771236), wk =   0.0002222
        k(  177) = (  -0.2946278  -0.3653385   0.3653385), wk =   0.0002222
        k(  178) = (  -0.2828427  -0.3535534   0.3535534), wk =   0.0002222
        k(  179) = (  -0.2710576  -0.3417683   0.3417683), wk =   0.0002222
        k(  180) = (  -0.2592725  -0.3299832   0.3299832), wk =   0.0002222
        k(  181) = (  -0.2474874  -0.3181981   0.3181981), wk =   0.0002222
        k(  182) = (  -0.2357023  -0.3064129   0.3064129), wk =   0.0002222
        k(  183) = (  -0.2239171  -0.2946278   0.2946278), wk =   0.0002222
        k(  184) = (  -0.2121320  -0.2828427   0.2828427), wk =   0.0002222
        k(  185) = (  -0.2003469  -0.2710576   0.2710576), wk =   0.0002222
        k(  186) = (  -0.1885618  -0.2592725   0.2592725), wk =   0.0002222
        k(  187) = (  -0.1767767  -0.2474874   0.2474874), wk =   0.0002222
        k(  188) = (  -0.1649916  -0.2357023   0.2357023), wk =   0.0002222
        k(  189) = (  -0.1532065  -0.2239171   0.2239171), wk =   0.0002222
        k(  190) = (  -0.1414214  -0.2121320   0.2121320), wk =   0.0002222
        k(  191) = (  -0.1296362  -0.2003469   0.2003469), wk =   0.0002222
        k(  192) = (  -0.1178511  -0.1885618   0.1885618), wk =   0.0002222
        k(  193) = (  -0.1060660  -0.1767767   0.1767767), wk =   0.0002222
        k(  194) = (  -0.0942809  -0.1649916   0.1649916), wk =   0.0002222
        k(  195) = (  -0.0824958  -0.1532065   0.1532065), wk =   0.0002222
        k(  196) = (  -0.0707107  -0.1414214   0.1414214), wk =   0.0002222
        k(  197) = (  -0.0589256  -0.1296362   0.1296362), wk =   0.0002222
        k(  198) = (  -0.0471405  -0.1178511   0.1178511), wk =   0.0002222
        k(  199) = (  -0.0353553  -0.1060660   0.1060660), wk =   0.0002222
        k(  200) = (  -0.0235702  -0.0942809   0.0942809), wk =   0.0002222
        k(  201) = (  -0.0117851  -0.0824958   0.0824958), wk =   0.0002222
        k(  202) = (  -0.0000000  -0.0707107   0.0707107), wk =   0.0001111
        k(  203) = (   0.0942809   0.0000000   0.0000000), wk =   0.0000556
        k(  204) = (   0.1060660   0.0117851  -0.0117851), wk =   0.0002222
        k(  205) = (   0.1178511   0.0235702  -0.0235702), wk =   0.0002222
        k(  206) = (   0.1296362   0.0353553  -0.0353553), wk =   0.0002222
        k(  207) = (   0.1414214   0.0471405  -0.0471405), wk =   0.0002222
        k(  208) = (   0.1532065   0.0589256  -0.0589256), wk =   0.0002222
        k(  209) = (   0.1649916   0.0707107  -0.0707107), wk =   0.0002222
        k(  210) = (   0.1767767   0.0824958  -0.0824958), wk =   0.0002222
        k(  211) = (   0.1885618   0.0942809  -0.0942809), wk =   0.0002222
        k(  212) = (   0.2003469   0.1060660  -0.1060660), wk =   0.0002222
        k(  213) = (   0.2121320   0.1178511  -0.1178511), wk =   0.0002222
        k(  214) = (   0.2239171   0.1296362  -0.1296362), wk =   0.0002222
        k(  215) = (   0.2357023   0.1414214  -0.1414214), wk =   0.0002222
        k(  216) = (   0.2474874   0.1532065  -0.1532065), wk =   0.0002222
        k(  217) = (   0.2592725   0.1649916  -0.1649916), wk =   0.0002222
        k(  218) = (   0.2710576   0.1767767  -0.1767767), wk =   0.0002222
        k(  219) = (   0.2828427   0.1885618  -0.1885618), wk =   0.0002222
        k(  220) = (   0.2946278   0.2003469  -0.2003469), wk =   0.0002222
        k(  221) = (   0.3064129   0.2121320  -0.2121320), wk =   0.0002222
        k(  222) = (   0.3181981   0.2239171  -0.2239171), wk =   0.0002222
        k(  223) = (   0.3299832   0.2357023  -0.2357023), wk =   0.0002222
        k(  224) = (   0.3417683   0.2474874  -0.2474874), wk =   0.0002222
        k(  225) = (   0.3535534   0.2592725  -0.2592725), wk =   0.0002222
        k(  226) = (   0.3653385   0.2710576  -0.2710576), wk =   0.0002222
        k(  227) = (   0.3771236   0.2828427  -0.2828427), wk =   0.0002222
        k(  228) = (   0.3889087   0.2946278  -0.2946278), wk =   0.0002222
        k(  229) = (  -0.3064129  -0.4006938   0.4006938), wk =   0.0002222
        k(  230) = (  -0.2946278  -0.3889087   0.3889087), wk =   0.0002222
        k(  231) = (  -0.2828427  -0.3771236   0.3771236), wk =   0.0002222
        k(  232) = (  -0.2710576  -0.3653385   0.3653385), wk =   0.0002222
        k(  233) = (  -0.2592725  -0.3535534   0.3535534), wk =   0.0002222
        k(  234) = (  -0.2474874  -0.3417683   0.3417683), wk =   0.0002222
        k(  235) = (  -0.2357023  -0.3299832   0.3299832), wk =   0.0002222
        k(  236) = (  -0.2239171  -0.3181981   0.3181981), wk =   0.0002222
        k(  237) = (  -0.2121320  -0.3064129   0.3064129), wk =   0.0002222
        k(  238) = (  -0.2003469  -0.2946278   0.2946278), wk =   0.0002222
        k(  239) = (  -0.1885618  -0.2828427   0.2828427), wk =   0.0002222
        k(  240) = (  -0.1767767  -0.2710576   0.2710576), wk =   0.0002222
        k(  241) = (  -0.1649916  -0.2592725   0.2592725), wk =   0.0002222
        k(  242) = (  -0.1532065  -0.2474874   0.2474874), wk =   0.0002222
        k(  243) = (  -0.1414214  -0.2357023   0.2357023), wk =   0.0002222
        k(  244) = (  -0.1296362  -0.2239171   0.2239171), wk =   0.0002222
        k(  245) = (  -0.1178511  -0.2121320   0.2121320), wk =   0.0002222
        k(  246) = (  -0.1060660  -0.2003469   0.2003469), wk =   0.0002222
        k(  247) = (  -0.0942809  -0.1885618   0.1885618), wk =   0.0002222
        k(  248) = (  -0.0824958  -0.1767767   0.1767767), wk =   0.0002222
        k(  249) = (  -0.0707107  -0.1649916   0.1649916), wk =   0.0002222
        k(  250) = (  -0.0589256  -0.1532065   0.1532065), wk =   0.0002222
        k(  251) = (  -0.0471405  -0.1414214   0.1414214), wk =   0.0002222
        k(  252) = (  -0.0353553  -0.1296362   0.1296362), wk =   0.0002222
        k(  253) = (  -0.0235702  -0.1178511   0.1178511), wk =   0.0002222
        k(  254) = (  -0.0117851  -0.1060660   0.1060660), wk =   0.0002222
        k(  255) = (   0.0000000  -0.0942809   0.0942809), wk =   0.0001111
        k(  256) = (   0.1178511   0.0000000   0.0000000), wk =   0.0000556
        k(  257) = (   0.1296362   0.0117851  -0.0117851), wk =   0.0002222
        k(  258) = (   0.1414214   0.0235702  -0.0235702), wk =   0.0002222
        k(  259) = (   0.1532065   0.0353553  -0.0353553), wk =   0.0002222
        k(  260) = (   0.1649916   0.0471405  -0.0471405), wk =   0.0002222
        k(  261) = (   0.1767767   0.0589256  -0.0589256), wk =   0.0002222
        k(  262) = (   0.1885618   0.0707107  -0.0707107), wk =   0.0002222
        k(  263) = (   0.2003469   0.0824958  -0.0824958), wk =   0.0002222
        k(  264) = (   0.2121320   0.0942809  -0.0942809), wk =   0.0002222
        k(  265) = (   0.2239171   0.1060660  -0.1060660), wk =   0.0002222
        k(  266) = (   0.2357023   0.1178511  -0.1178511), wk =   0.0002222
        k(  267) = (   0.2474874   0.1296362  -0.1296362), wk =   0.0002222
        k(  268) = (   0.2592725   0.1414214  -0.1414214), wk =   0.0002222
        k(  269) = (   0.2710576   0.1532065  -0.1532065), wk =   0.0002222
        k(  270) = (   0.2828427   0.1649916  -0.1649916), wk =   0.0002222
        k(  271) = (   0.2946278   0.1767767  -0.1767767), wk =   0.0002222
        k(  272) = (   0.3064129   0.1885618  -0.1885618), wk =   0.0002222
        k(  273) = (   0.3181981   0.2003469  -0.2003469), wk =   0.0002222
        k(  274) = (   0.3299832   0.2121320  -0.2121320), wk =   0.0002222
        k(  275) = (   0.3417683   0.2239171  -0.2239171), wk =   0.0002222
        k(  276) = (   0.3535534   0.2357023  -0.2357023), wk =   0.0002222
        k(  277) = (   0.3653385   0.2474874  -0.2474874), wk =   0.0002222
        k(  278) = (   0.3771236   0.2592725  -0.2592725), wk =   0.0002222
        k(  279) = (   0.3889087   0.2710576  -0.2710576), wk =   0.0002222
        k(  280) = (   0.4006938   0.2828427  -0.2828427), wk =   0.0002222
        k(  281) = (  -0.2946278  -0.4124790   0.4124790), wk =   0.0002222
        k(  282) = (  -0.2828427  -0.4006938   0.4006938), wk =   0.0002222
        k(  283) = (  -0.2710576  -0.3889087   0.3889087), wk =   0.0002222
        k(  284) = (  -0.2592725  -0.3771236   0.3771236), wk =   0.0002222
        k(  285) = (  -0.2474874  -0.3653385   0.3653385), wk =   0.0002222
        k(  286) = (  -0.2357023  -0.3535534   0.3535534), wk =   0.0002222
        k(  287) = (  -0.2239171  -0.3417683   0.3417683), wk =   0.0002222
        k(  288) = (  -0.2121320  -0.3299832   0.3299832), wk =   0.0002222
        k(  289) = (  -0.2003469  -0.3181981   0.3181981), wk =   0.0002222
        k(  290) = (  -0.1885618  -0.3064129   0.3064129), wk =   0.0002222
        k(  291) = (  -0.1767767  -0.2946278   0.2946278), wk =   0.0002222
        k(  292) = (  -0.1649916  -0.2828427   0.2828427), wk =   0.0002222
        k(  293) = (  -0.1532065  -0.2710576   0.2710576), wk =   0.0002222
        k(  294) = (  -0.1414214  -0.2592725   0.2592725), wk =   0.0002222
        k(  295) = (  -0.1296362  -0.2474874   0.2474874), wk =   0.0002222
        k(  296) = (  -0.1178511  -0.2357023   0.2357023), wk =   0.0002222
        k(  297) = (  -0.1060660  -0.2239171   0.2239171), wk =   0.0002222
        k(  298) = (  -0.0942809  -0.2121320   0.2121320), wk =   0.0002222
        k(  299) = (  -0.0824958  -0.2003469   0.2003469), wk =   0.0002222
        k(  300) = (  -0.0707107  -0.1885618   0.1885618), wk =   0.0002222
        k(  301) = (  -0.0589256  -0.1767767   0.1767767), wk =   0.0002222
        k(  302) = (  -0.0471405  -0.1649916   0.1649916), wk =   0.0002222
        k(  303) = (  -0.0353553  -0.1532065   0.1532065), wk =   0.0002222
        k(  304) = (  -0.0235702  -0.1414214   0.1414214), wk =   0.0002222
        k(  305) = (  -0.0117851  -0.1296362   0.1296362), wk =   0.0002222
        k(  306) = (  -0.0000000  -0.1178511   0.1178511), wk =   0.0001111
        k(  307) = (   0.1414214   0.0000000   0.0000000), wk =   0.0000556
        k(  308) = (   0.1532065   0.0117851  -0.0117851), wk =   0.0002222
        k(  309) = (   0.1649916   0.0235702  -0.0235702), wk =   0.0002222
        k(  310) = (   0.1767767   0.0353553  -0.0353553), wk =   0.0002222
        k(  311) = (   0.1885618   0.0471405  -0.0471405), wk =   0.0002222
        k(  312) = (   0.2003469   0.0589256  -0.0589256), wk =   0.0002222
        k(  313) = (   0.2121320   0.0707107  -0.0707107), wk =   0.0002222
        k(  314) = (   0.2239171   0.0824958  -0.0824958), wk =   0.0002222
        k(  315) = (   0.2357023   0.0942809  -0.0942809), wk =   0.0002222
        k(  316) = (   0.2474874   0.1060660  -0.1060660), wk =   0.0002222
        k(  317) = (   0.2592725   0.1178511  -0.1178511), wk =   0.0002222
        k(  318) = (   0.2710576   0.1296362  -0.1296362), wk =   0.0002222
        k(  319) = (   0.2828427   0.1414214  -0.1414214), wk =   0.0002222
        k(  320) = (   0.2946278   0.1532065  -0.1532065), wk =   0.0002222
        k(  321) = (   0.3064129   0.1649916  -0.1649916), wk =   0.0002222
        k(  322) = (   0.3181981   0.1767767  -0.1767767), wk =   0.0002222
        k(  323) = (   0.3299832   0.1885618  -0.1885618), wk =   0.0002222
        k(  324) = (   0.3417683   0.2003469  -0.2003469), wk =   0.0002222
        k(  325) = (   0.3535534   0.2121320  -0.2121320), wk =   0.0002222
        k(  326) = (   0.3653385   0.2239171  -0.2239171), wk =   0.0002222
        k(  327) = (   0.3771236   0.2357023  -0.2357023), wk =   0.0002222
        k(  328) = (   0.3889087   0.2474874  -0.2474874), wk =   0.0002222
        k(  329) = (   0.4006938   0.2592725  -0.2592725), wk =   0.0002222
        k(  330) = (   0.4124790   0.2710576  -0.2710576), wk =   0.0002222
        k(  331) = (  -0.2828427  -0.4242641   0.4242641), wk =   0.0002222
        k(  332) = (  -0.2710576  -0.4124790   0.4124790), wk =   0.0002222
        k(  333) = (  -0.2592725  -0.4006938   0.4006938), wk =   0.0002222
        k(  334) = (  -0.2474874  -0.3889087   0.3889087), wk =   0.0002222
        k(  335) = (  -0.2357023  -0.3771236   0.3771236), wk =   0.0002222
        k(  336) = (  -0.2239171  -0.3653385   0.3653385), wk =   0.0002222
        k(  337) = (  -0.2121320  -0.3535534   0.3535534), wk =   0.0002222
        k(  338) = (  -0.2003469  -0.3417683   0.3417683), wk =   0.0002222
        k(  339) = (  -0.1885618  -0.3299832   0.3299832), wk =   0.0002222
        k(  340) = (  -0.1767767  -0.3181981   0.3181981), wk =   0.0002222
        k(  341) = (  -0.1649916  -0.3064129   0.3064129), wk =   0.0002222
        k(  342) = (  -0.1532065  -0.2946278   0.2946278), wk =   0.0002222
        k(  343) = (  -0.1414214  -0.2828427   0.2828427), wk =   0.0002222
        k(  344) = (  -0.1296362  -0.2710576   0.2710576), wk =   0.0002222
        k(  345) = (  -0.1178511  -0.2592725   0.2592725), wk =   0.0002222
        k(  346) = (  -0.1060660  -0.2474874   0.2474874), wk =   0.0002222
        k(  347) = (  -0.0942809  -0.2357023   0.2357023), wk =   0.0002222
        k(  348) = (  -0.0824958  -0.2239171   0.2239171), wk =   0.0002222
        k(  349) = (  -0.0707107  -0.2121320   0.2121320), wk =   0.0002222
        k(  350) = (  -0.0589256  -0.2003469   0.2003469), wk =   0.0002222
        k(  351) = (  -0.0471405  -0.1885618   0.1885618), wk =   0.0002222
        k(  352) = (  -0.0353553  -0.1767767   0.1767767), wk =   0.0002222
        k(  353) = (  -0.0235702  -0.1649916   0.1649916), wk =   0.0002222
        k(  354) = (  -0.0117851  -0.1532065   0.1532065), wk =   0.0002222
        k(  355) = (   0.0000000  -0.1414214   0.1414214), wk =   0.0001111
        k(  356) = (   0.1649916   0.0000000   0.0000000), wk =   0.0000556
        k(  357) = (   0.1767767   0.0117851  -0.0117851), wk =   0.0002222
        k(  358) = (   0.1885618   0.0235702  -0.0235702), wk =   0.0002222
        k(  359) = (   0.2003469   0.0353553  -0.0353553), wk =   0.0002222
        k(  360) = (   0.2121320   0.0471405  -0.0471405), wk =   0.0002222
        k(  361) = (   0.2239171   0.0589256  -0.0589256), wk =   0.0002222
        k(  362) = (   0.2357023   0.0707107  -0.0707107), wk =   0.0002222
        k(  363) = (   0.2474874   0.0824958  -0.0824958), wk =   0.0002222
        k(  364) = (   0.2592725   0.0942809  -0.0942809), wk =   0.0002222
        k(  365) = (   0.2710576   0.1060660  -0.1060660), wk =   0.0002222
        k(  366) = (   0.2828427   0.1178511  -0.1178511), wk =   0.0002222
        k(  367) = (   0.2946278   0.1296362  -0.1296362), wk =   0.0002222
        k(  368) = (   0.3064129   0.1414214  -0.1414214), wk =   0.0002222
        k(  369) = (   0.3181981   0.1532065  -0.1532065), wk =   0.0002222
        k(  370) = (   0.3299832   0.1649916  -0.1649916), wk =   0.0002222
        k(  371) = (   0.3417683   0.1767767  -0.1767767), wk =   0.0002222
        k(  372) = (   0.3535534   0.1885618  -0.1885618), wk =   0.0002222
        k(  373) = (   0.3653385   0.2003469  -0.2003469), wk =   0.0002222
        k(  374) = (   0.3771236   0.2121320  -0.2121320), wk =   0.0002222
        k(  375) = (   0.3889087   0.2239171  -0.2239171), wk =   0.0002222
        k(  376) = (   0.4006938   0.2357023  -0.2357023), wk =   0.0002222
        k(  377) = (   0.4124790   0.2474874  -0.2474874), wk =   0.0002222
        k(  378) = (   0.4242641   0.2592725  -0.2592725), wk =   0.0002222
        k(  379) = (  -0.2710576  -0.4360492   0.4360492), wk =   0.0002222
        k(  380) = (  -0.2592725  -0.4242641   0.4242641), wk =   0.0002222
        k(  381) = (  -0.2474874  -0.4124790   0.4124790), wk =   0.0002222
        k(  382) = (  -0.2357023  -0.4006938   0.4006938), wk =   0.0002222
        k(  383) = (  -0.2239171  -0.3889087   0.3889087), wk =   0.0002222
        k(  384) = (  -0.2121320  -0.3771236   0.3771236), wk =   0.0002222
        k(  385) = (  -0.2003469  -0.3653385   0.3653385), wk =   0.0002222
        k(  386) = (  -0.1885618  -0.3535534   0.3535534), wk =   0.0002222
        k(  387) = (  -0.1767767  -0.3417683   0.3417683), wk =   0.0002222
        k(  388) = (  -0.1649916  -0.3299832   0.3299832), wk =   0.0002222
        k(  389) = (  -0.1532065  -0.3181981   0.3181981), wk =   0.0002222
        k(  390) = (  -0.1414214  -0.3064129   0.3064129), wk =   0.0002222
        k(  391) = (  -0.1296362  -0.2946278   0.2946278), wk =   0.0002222
        k(  392) = (  -0.1178511  -0.2828427   0.2828427), wk =   0.0002222
        k(  393) = (  -0.1060660  -0.2710576   0.2710576), wk =   0.0002222
        k(  394) = (  -0.0942809  -0.2592725   0.2592725), wk =   0.0002222
        k(  395) = (  -0.0824958  -0.2474874   0.2474874), wk =   0.0002222
        k(  396) = (  -0.0707107  -0.2357023   0.2357023), wk =   0.0002222
        k(  397) = (  -0.0589256  -0.2239171   0.2239171), wk =   0.0002222
        k(  398) = (  -0.0471405  -0.2121320   0.2121320), wk =   0.0002222
        k(  399) = (  -0.0353553  -0.2003469   0.2003469), wk =   0.0002222
        k(  400) = (  -0.0235702  -0.1885618   0.1885618), wk =   0.0002222
        k(  401) = (  -0.0117851  -0.1767767   0.1767767), wk =   0.0002222
        k(  402) = (  -0.0000000  -0.1649916   0.1649916), wk =   0.0001111
        k(  403) = (   0.1885618   0.0000000   0.0000000), wk =   0.0000556
        k(  404) = (   0.2003469   0.0117851  -0.0117851), wk =   0.0002222
        k(  405) = (   0.2121320   0.0235702  -0.0235702), wk =   0.0002222
        k(  406) = (   0.2239171   0.0353553  -0.0353553), wk =   0.0002222
        k(  407) = (   0.2357023   0.0471405  -0.0471405), wk =   0.0002222
        k(  408) = (   0.2474874   0.0589256  -0.0589256), wk =   0.0002222
        k(  409) = (   0.2592725   0.0707107  -0.0707107), wk =   0.0002222
        k(  410) = (   0.2710576   0.0824958  -0.0824958), wk =   0.0002222
        k(  411) = (   0.2828427   0.0942809  -0.0942809), wk =   0.0002222
        k(  412) = (   0.2946278   0.1060660  -0.1060660), wk =   0.0002222
        k(  413) = (   0.3064129   0.1178511  -0.1178511), wk =   0.0002222
        k(  414) = (   0.3181981   0.1296362  -0.1296362), wk =   0.0002222
        k(  415) = (   0.3299832   0.1414214  -0.1414214), wk =   0.0002222
        k(  416) = (   0.3417683   0.1532065  -0.1532065), wk =   0.0002222
        k(  417) = (   0.3535534   0.1649916  -0.1649916), wk =   0.0002222
        k(  418) = (   0.3653385   0.1767767  -0.1767767), wk =   0.0002222
        k(  419) = (   0.3771236   0.1885618  -0.1885618), wk =   0.0002222
        k(  420) = (   0.3889087   0.2003469  -0.2003469), wk =   0.0002222
        k(  421) = (   0.4006938   0.2121320  -0.2121320), wk =   0.0002222
        k(  422) = (   0.4124790   0.2239171  -0.2239171), wk =   0.0002222
        k(  423) = (   0.4242641   0.2357023  -0.2357023), wk =   0.0002222
        k(  424) = (   0.4360492   0.2474874  -0.2474874), wk =   0.0002222
        k(  425) = (  -0.2592725  -0.4478343   0.4478343), wk =   0.0002222
        k(  426) = (  -0.2474874  -0.4360492   0.4360492), wk =   0.0002222
        k(  427) = (  -0.2357023  -0.4242641   0.4242641), wk =   0.0002222
        k(  428) = (  -0.2239171  -0.4124790   0.4124790), wk =   0.0002222
        k(  429) = (  -0.2121320  -0.4006938   0.4006938), wk =   0.0002222
        k(  430) = (  -0.2003469  -0.3889087   0.3889087), wk =   0.0002222
        k(  431) = (  -0.1885618  -0.3771236   0.3771236), wk =   0.0002222
        k(  432) = (  -0.1767767  -0.3653385   0.3653385), wk =   0.0002222
        k(  433) = (  -0.1649916  -0.3535534   0.3535534), wk =   0.0002222
        k(  434) = (  -0.1532065  -0.3417683   0.3417683), wk =   0.0002222
        k(  435) = (  -0.1414214  -0.3299832   0.3299832), wk =   0.0002222
        k(  436) = (  -0.1296362  -0.3181981   0.3181981), wk =   0.0002222
        k(  437) = (  -0.1178511  -0.3064129   0.3064129), wk =   0.0002222
        k(  438) = (  -0.1060660  -0.2946278   0.2946278), wk =   0.0002222
        k(  439) = (  -0.0942809  -0.2828427   0.2828427), wk =   0.0002222
        k(  440) = (  -0.0824958  -0.2710576   0.2710576), wk =   0.0002222
        k(  441) = (  -0.0707107  -0.2592725   0.2592725), wk =   0.0002222
        k(  442) = (  -0.0589256  -0.2474874   0.2474874), wk =   0.0002222
        k(  443) = (  -0.0471405  -0.2357023   0.2357023), wk =   0.0002222
        k(  444) = (  -0.0353553  -0.2239171   0.2239171), wk =   0.0002222
        k(  445) = (  -0.0235702  -0.2121320   0.2121320), wk =   0.0002222
        k(  446) = (  -0.0117851  -0.2003469   0.2003469), wk =   0.0002222
        k(  447) = (   0.0000000  -0.1885618   0.1885618), wk =   0.0001111
        k(  448) = (   0.2121320   0.0000000   0.0000000), wk =   0.0000556
        k(  449) = (   0.2239171   0.0117851  -0.0117851), wk =   0.0002222
        k(  450) = (   0.2357023   0.0235702  -0.0235702), wk =   0.0002222
        k(  451) = (   0.2474874   0.0353553  -0.0353553), wk =   0.0002222
        k(  452) = (   0.2592725   0.0471405  -0.0471405), wk =   0.0002222
        k(  453) = (   0.2710576   0.0589256  -0.0589256), wk =   0.0002222
        k(  454) = (   0.2828427   0.0707107  -0.0707107), wk =   0.0002222
        k(  455) = (   0.2946278   0.0824958  -0.0824958), wk =   0.0002222
        k(  456) = (   0.3064129   0.0942809  -0.0942809), wk =   0.0002222
        k(  457) = (   0.3181981   0.1060660  -0.1060660), wk =   0.0002222
        k(  458) = (   0.3299832   0.1178511  -0.1178511), wk =   0.0002222
        k(  459) = (   0.3417683   0.1296362  -0.1296362), wk =   0.0002222
        k(  460) = (   0.3535534   0.1414214  -0.1414214), wk =   0.0002222
        k(  461) = (   0.3653385   0.1532065  -0.1532065), wk =   0.0002222
        k(  462) = (   0.3771236   0.1649916  -0.1649916), wk =   0.0002222
        k(  463) = (   0.3889087   0.1767767  -0.1767767), wk =   0.0002222
        k(  464) = (   0.4006938   0.1885618  -0.1885618), wk =   0.0002222
        k(  465) = (   0.4124790   0.2003469  -0.2003469), wk =   0.0002222
        k(  466) = (   0.4242641   0.2121320  -0.2121320), wk =   0.0002222
        k(  467) = (   0.4360492   0.2239171  -0.2239171), wk =   0.0002222
        k(  468) = (   0.4478343   0.2357023  -0.2357023), wk =   0.0002222
        k(  469) = (  -0.2474874  -0.4596194   0.4596194), wk =   0.0002222
        k(  470) = (  -0.2357023  -0.4478343   0.4478343), wk =   0.0002222
        k(  471) = (  -0.2239171  -0.4360492   0.4360492), wk =   0.0002222
        k(  472) = (  -0.2121320  -0.4242641   0.4242641), wk =   0.0002222
        k(  473) = (  -0.2003469  -0.4124790   0.4124790), wk =   0.0002222
        k(  474) = (  -0.1885618  -0.4006938   0.4006938), wk =   0.0002222
        k(  475) = (  -0.1767767  -0.3889087   0.3889087), wk =   0.0002222
        k(  476) = (  -0.1649916  -0.3771236   0.3771236), wk =   0.0002222
        k(  477) = (  -0.1532065  -0.3653385   0.3653385), wk =   0.0002222
        k(  478) = (  -0.1414214  -0.3535534   0.3535534), wk =   0.0002222
        k(  479) = (  -0.1296362  -0.3417683   0.3417683), wk =   0.0002222
        k(  480) = (  -0.1178511  -0.3299832   0.3299832), wk =   0.0002222
        k(  481) = (  -0.1060660  -0.3181981   0.3181981), wk =   0.0002222
        k(  482) = (  -0.0942809  -0.3064129   0.3064129), wk =   0.0002222
        k(  483) = (  -0.0824958  -0.2946278   0.2946278), wk =   0.0002222
        k(  484) = (  -0.0707107  -0.2828427   0.2828427), wk =   0.0002222
        k(  485) = (  -0.0589256  -0.2710576   0.2710576), wk =   0.0002222
        k(  486) = (  -0.0471405  -0.2592725   0.2592725), wk =   0.0002222
        k(  487) = (  -0.0353553  -0.2474874   0.2474874), wk =   0.0002222
        k(  488) = (  -0.0235702  -0.2357023   0.2357023), wk =   0.0002222
        k(  489) = (  -0.0117851  -0.2239171   0.2239171), wk =   0.0002222
        k(  490) = (  -0.0000000  -0.2121320   0.2121320), wk =   0.0001111
        k(  491) = (   0.2357023   0.0000000   0.0000000), wk =   0.0000556
        k(  492) = (   0.2474874   0.0117851  -0.0117851), wk =   0.0002222
        k(  493) = (   0.2592725   0.0235702  -0.0235702), wk =   0.0002222
        k(  494) = (   0.2710576   0.0353553  -0.0353553), wk =   0.0002222
        k(  495) = (   0.2828427   0.0471405  -0.0471405), wk =   0.0002222
        k(  496) = (   0.2946278   0.0589256  -0.0589256), wk =   0.0002222
        k(  497) = (   0.3064129   0.0707107  -0.0707107), wk =   0.0002222
        k(  498) = (   0.3181981   0.0824958  -0.0824958), wk =   0.0002222
        k(  499) = (   0.3299832   0.0942809  -0.0942809), wk =   0.0002222
        k(  500) = (   0.3417683   0.1060660  -0.1060660), wk =   0.0002222
        k(  501) = (   0.3535534   0.1178511  -0.1178511), wk =   0.0002222
        k(  502) = (   0.3653385   0.1296362  -0.1296362), wk =   0.0002222
        k(  503) = (   0.3771236   0.1414214  -0.1414214), wk =   0.0002222
        k(  504) = (   0.3889087   0.1532065  -0.1532065), wk =   0.0002222
        k(  505) = (   0.4006938   0.1649916  -0.1649916), wk =   0.0002222
        k(  506) = (   0.4124790   0.1767767  -0.1767767), wk =   0.0002222
        k(  507) = (   0.4242641   0.1885618  -0.1885618), wk =   0.0002222
        k(  508) = (   0.4360492   0.2003469  -0.2003469), wk =   0.0002222
        k(  509) = (   0.4478343   0.2121320  -0.2121320), wk =   0.0002222
        k(  510) = (   0.4596194   0.2239171  -0.2239171), wk =   0.0002222
        k(  511) = (  -0.2357023  -0.4714045   0.4714045), wk =   0.0002222
        k(  512) = (  -0.2239171  -0.4596194   0.4596194), wk =   0.0002222
        k(  513) = (  -0.2121320  -0.4478343   0.4478343), wk =   0.0002222
        k(  514) = (  -0.2003469  -0.4360492   0.4360492), wk =   0.0002222
        k(  515) = (  -0.1885618  -0.4242641   0.4242641), wk =   0.0002222
        k(  516) = (  -0.1767767  -0.4124790   0.4124790), wk =   0.0002222
        k(  517) = (  -0.1649916  -0.4006938   0.4006938), wk =   0.0002222
        k(  518) = (  -0.1532065  -0.3889087   0.3889087), wk =   0.0002222
        k(  519) = (  -0.1414214  -0.3771236   0.3771236), wk =   0.0002222
        k(  520) = (  -0.1296362  -0.3653385   0.3653385), wk =   0.0002222
        k(  521) = (  -0.1178511  -0.3535534   0.3535534), wk =   0.0002222
        k(  522) = (  -0.1060660  -0.3417683   0.3417683), wk =   0.0002222
        k(  523) = (  -0.0942809  -0.3299832   0.3299832), wk =   0.0002222
        k(  524) = (  -0.0824958  -0.3181981   0.3181981), wk =   0.0002222
        k(  525) = (  -0.0707107  -0.3064129   0.3064129), wk =   0.0002222
        k(  526) = (  -0.0589256  -0.2946278   0.2946278), wk =   0.0002222
        k(  527) = (  -0.0471405  -0.2828427   0.2828427), wk =   0.0002222
        k(  528) = (  -0.0353553  -0.2710576   0.2710576), wk =   0.0002222
        k(  529) = (  -0.0235702  -0.2592725   0.2592725), wk =   0.0002222
        k(  530) = (  -0.0117851  -0.2474874   0.2474874), wk =   0.0002222
        k(  531) = (   0.0000000  -0.2357023   0.2357023), wk =   0.0001111
        k(  532) = (   0.2592725   0.0000000   0.0000000), wk =   0.0000556
        k(  533) = (   0.2710576   0.0117851  -0.0117851), wk =   0.0002222
        k(  534) = (   0.2828427   0.0235702  -0.0235702), wk =   0.0002222
        k(  535) = (   0.2946278   0.0353553  -0.0353553), wk =   0.0002222
        k(  536) = (   0.3064129   0.0471405  -0.0471405), wk =   0.0002222
        k(  537) = (   0.3181981   0.0589256  -0.0589256), wk =   0.0002222
        k(  538) = (   0.3299832   0.0707107  -0.0707107), wk =   0.0002222
        k(  539) = (   0.3417683   0.0824958  -0.0824958), wk =   0.0002222
        k(  540) = (   0.3535534   0.0942809  -0.0942809), wk =   0.0002222
        k(  541) = (   0.3653385   0.1060660  -0.1060660), wk =   0.0002222
        k(  542) = (   0.3771236   0.1178511  -0.1178511), wk =   0.0002222
        k(  543) = (   0.3889087   0.1296362  -0.1296362), wk =   0.0002222
        k(  544) = (   0.4006938   0.1414214  -0.1414214), wk =   0.0002222
        k(  545) = (   0.4124790   0.1532065  -0.1532065), wk =   0.0002222
        k(  546) = (   0.4242641   0.1649916  -0.1649916), wk =   0.0002222
        k(  547) = (   0.4360492   0.1767767  -0.1767767), wk =   0.0002222
        k(  548) = (   0.4478343   0.1885618  -0.1885618), wk =   0.0002222
        k(  549) = (   0.4596194   0.2003469  -0.2003469), wk =   0.0002222
        k(  550) = (   0.4714045   0.2121320  -0.2121320), wk =   0.0002222
        k(  551) = (  -0.2239171  -0.4831896   0.4831896), wk =   0.0002222
        k(  552) = (  -0.2121320  -0.4714045   0.4714045), wk =   0.0002222
        k(  553) = (  -0.2003469  -0.4596194   0.4596194), wk =   0.0002222
        k(  554) = (  -0.1885618  -0.4478343   0.4478343), wk =   0.0002222
        k(  555) = (  -0.1767767  -0.4360492   0.4360492), wk =   0.0002222
        k(  556) = (  -0.1649916  -0.4242641   0.4242641), wk =   0.0002222
        k(  557) = (  -0.1532065  -0.4124790   0.4124790), wk =   0.0002222
        k(  558) = (  -0.1414214  -0.4006938   0.4006938), wk =   0.0002222
        k(  559) = (  -0.1296362  -0.3889087   0.3889087), wk =   0.0002222
        k(  560) = (  -0.1178511  -0.3771236   0.3771236), wk =   0.0002222
        k(  561) = (  -0.1060660  -0.3653385   0.3653385), wk =   0.0002222
        k(  562) = (  -0.0942809  -0.3535534   0.3535534), wk =   0.0002222
        k(  563) = (  -0.0824958  -0.3417683   0.3417683), wk =   0.0002222
        k(  564) = (  -0.0707107  -0.3299832   0.3299832), wk =   0.0002222
        k(  565) = (  -0.0589256  -0.3181981   0.3181981), wk =   0.0002222
        k(  566) = (  -0.0471405  -0.3064129   0.3064129), wk =   0.0002222
        k(  567) = (  -0.0353553  -0.2946278   0.2946278), wk =   0.0002222
        k(  568) = (  -0.0235702  -0.2828427   0.2828427), wk =   0.0002222
        k(  569) = (  -0.0117851  -0.2710576   0.2710576), wk =   0.0002222
        k(  570) = (  -0.0000000  -0.2592725   0.2592725), wk =   0.0001111
        k(  571) = (   0.2828427   0.0000000   0.0000000), wk =   0.0000556
        k(  572) = (   0.2946278   0.0117851  -0.0117851), wk =   0.0002222
        k(  573) = (   0.3064129   0.0235702  -0.0235702), wk =   0.0002222
        k(  574) = (   0.3181981   0.0353553  -0.0353553), wk =   0.0002222
        k(  575) = (   0.3299832   0.0471405  -0.0471405), wk =   0.0002222
        k(  576) = (   0.3417683   0.0589256  -0.0589256), wk =   0.0002222
        k(  577) = (   0.3535534   0.0707107  -0.0707107), wk =   0.0002222
        k(  578) = (   0.3653385   0.0824958  -0.0824958), wk =   0.0002222
        k(  579) = (   0.3771236   0.0942809  -0.0942809), wk =   0.0002222
        k(  580) = (   0.3889087   0.1060660  -0.1060660), wk =   0.0002222
        k(  581) = (   0.4006938   0.1178511  -0.1178511), wk =   0.0002222
        k(  582) = (   0.4124790   0.1296362  -0.1296362), wk =   0.0002222
        k(  583) = (   0.4242641   0.1414214  -0.1414214), wk =   0.0002222
        k(  584) = (   0.4360492   0.1532065  -0.1532065), wk =   0.0002222
        k(  585) = (   0.4478343   0.1649916  -0.1649916), wk =   0.0002222
        k(  586) = (   0.4596194   0.1767767  -0.1767767), wk =   0.0002222
        k(  587) = (   0.4714045   0.1885618  -0.1885618), wk =   0.0002222
        k(  588) = (   0.4831896   0.2003469  -0.2003469), wk =   0.0002222
        k(  589) = (  -0.2121320  -0.4949747   0.4949747), wk =   0.0002222
        k(  590) = (  -0.2003469  -0.4831896   0.4831896), wk =   0.0002222
        k(  591) = (  -0.1885618  -0.4714045   0.4714045), wk =   0.0002222
        k(  592) = (  -0.1767767  -0.4596194   0.4596194), wk =   0.0002222
        k(  593) = (  -0.1649916  -0.4478343   0.4478343), wk =   0.0002222
        k(  594) = (  -0.1532065  -0.4360492   0.4360492), wk =   0.0002222
        k(  595) = (  -0.1414214  -0.4242641   0.4242641), wk =   0.0002222
        k(  596) = (  -0.1296362  -0.4124790   0.4124790), wk =   0.0002222
        k(  597) = (  -0.1178511  -0.4006938   0.4006938), wk =   0.0002222
        k(  598) = (  -0.1060660  -0.3889087   0.3889087), wk =   0.0002222
        k(  599) = (  -0.0942809  -0.3771236   0.3771236), wk =   0.0002222
        k(  600) = (  -0.0824958  -0.3653385   0.3653385), wk =   0.0002222
        k(  601) = (  -0.0707107  -0.3535534   0.3535534), wk =   0.0002222
        k(  602) = (  -0.0589256  -0.3417683   0.3417683), wk =   0.0002222
        k(  603) = (  -0.0471405  -0.3299832   0.3299832), wk =   0.0002222
        k(  604) = (  -0.0353553  -0.3181981   0.3181981), wk =   0.0002222
        k(  605) = (  -0.0235702  -0.3064129   0.3064129), wk =   0.0002222
        k(  606) = (  -0.0117851  -0.2946278   0.2946278), wk =   0.0002222
        k(  607) = (   0.0000000  -0.2828427   0.2828427), wk =   0.0001111
        k(  608) = (   0.3064129   0.0000000   0.0000000), wk =   0.0000556
        k(  609) = (   0.3181981   0.0117851  -0.0117851), wk =   0.0002222
        k(  610) = (   0.3299832   0.0235702  -0.0235702), wk =   0.0002222
        k(  611) = (   0.3417683   0.0353553  -0.0353553), wk =   0.0002222
        k(  612) = (   0.3535534   0.0471405  -0.0471405), wk =   0.0002222
        k(  613) = (   0.3653385   0.0589256  -0.0589256), wk =   0.0002222
        k(  614) = (   0.3771236   0.0707107  -0.0707107), wk =   0.0002222
        k(  615) = (   0.3889087   0.0824958  -0.0824958), wk =   0.0002222
        k(  616) = (   0.4006938   0.0942809  -0.0942809), wk =   0.0002222
        k(  617) = (   0.4124790   0.1060660  -0.1060660), wk =   0.0002222
        k(  618) = (   0.4242641   0.1178511  -0.1178511), wk =   0.0002222
        k(  619) = (   0.4360492   0.1296362  -0.1296362), wk =   0.0002222
        k(  620) = (   0.4478343   0.1414214  -0.1414214), wk =   0.0002222
        k(  621) = (   0.4596194   0.1532065  -0.1532065), wk =   0.0002222
        k(  622) = (   0.4714045   0.1649916  -0.1649916), wk =   0.0002222
        k(  623) = (   0.4831896   0.1767767  -0.1767767), wk =   0.0002222
        k(  624) = (   0.4949747   0.1885618  -0.1885618), wk =   0.0002222
        k(  625) = (  -0.2003469  -0.5067599   0.5067599), wk =   0.0002222
        k(  626) = (  -0.1885618  -0.4949747   0.4949747), wk =   0.0002222
        k(  627) = (  -0.1767767  -0.4831896   0.4831896), wk =   0.0002222
        k(  628) = (  -0.1649916  -0.4714045   0.4714045), wk =   0.0002222
        k(  629) = (  -0.1532065  -0.4596194   0.4596194), wk =   0.0002222
        k(  630) = (  -0.1414214  -0.4478343   0.4478343), wk =   0.0002222
        k(  631) = (  -0.1296362  -0.4360492   0.4360492), wk =   0.0002222
        k(  632) = (  -0.1178511  -0.4242641   0.4242641), wk =   0.0002222
        k(  633) = (  -0.1060660  -0.4124790   0.4124790), wk =   0.0002222
        k(  634) = (  -0.0942809  -0.4006938   0.4006938), wk =   0.0002222
        k(  635) = (  -0.0824958  -0.3889087   0.3889087), wk =   0.0002222
        k(  636) = (  -0.0707107  -0.3771236   0.3771236), wk =   0.0002222
        k(  637) = (  -0.0589256  -0.3653385   0.3653385), wk =   0.0002222
        k(  638) = (  -0.0471405  -0.3535534   0.3535534), wk =   0.0002222
        k(  639) = (  -0.0353553  -0.3417683   0.3417683), wk =   0.0002222
        k(  640) = (  -0.0235702  -0.3299832   0.3299832), wk =   0.0002222
        k(  641) = (  -0.0117851  -0.3181981   0.3181981), wk =   0.0002222
        k(  642) = (   0.0000000  -0.3064129   0.3064129), wk =   0.0001111
        k(  643) = (   0.3299832   0.0000000   0.0000000), wk =   0.0000556
        k(  644) = (   0.3417683   0.0117851  -0.0117851), wk =   0.0002222
        k(  645) = (   0.3535534   0.0235702  -0.0235702), wk =   0.0002222
        k(  646) = (   0.3653385   0.0353553  -0.0353553), wk =   0.0002222
        k(  647) = (   0.3771236   0.0471405  -0.0471405), wk =   0.0002222
        k(  648) = (   0.3889087   0.0589256  -0.0589256), wk =   0.0002222
        k(  649) = (   0.4006938   0.0707107  -0.0707107), wk =   0.0002222
        k(  650) = (   0.4124790   0.0824958  -0.0824958), wk =   0.0002222
        k(  651) = (   0.4242641   0.0942809  -0.0942809), wk =   0.0002222
        k(  652) = (   0.4360492   0.1060660  -0.1060660), wk =   0.0002222
        k(  653) = (   0.4478343   0.1178511  -0.1178511), wk =   0.0002222
        k(  654) = (   0.4596194   0.1296362  -0.1296362), wk =   0.0002222
        k(  655) = (   0.4714045   0.1414214  -0.1414214), wk =   0.0002222
        k(  656) = (   0.4831896   0.1532065  -0.1532065), wk =   0.0002222
        k(  657) = (   0.4949747   0.1649916  -0.1649916), wk =   0.0002222
        k(  658) = (   0.5067599   0.1767767  -0.1767767), wk =   0.0002222
        k(  659) = (  -0.1885618  -0.5185450   0.5185450), wk =   0.0002222
        k(  660) = (  -0.1767767  -0.5067599   0.5067599), wk =   0.0002222
        k(  661) = (  -0.1649916  -0.4949747   0.4949747), wk =   0.0002222
        k(  662) = (  -0.1532065  -0.4831896   0.4831896), wk =   0.0002222
        k(  663) = (  -0.1414214  -0.4714045   0.4714045), wk =   0.0002222
        k(  664) = (  -0.1296362  -0.4596194   0.4596194), wk =   0.0002222
        k(  665) = (  -0.1178511  -0.4478343   0.4478343), wk =   0.0002222
        k(  666) = (  -0.1060660  -0.4360492   0.4360492), wk =   0.0002222
        k(  667) = (  -0.0942809  -0.4242641   0.4242641), wk =   0.0002222
        k(  668) = (  -0.0824958  -0.4124790   0.4124790), wk =   0.0002222
        k(  669) = (  -0.0707107  -0.4006938   0.4006938), wk =   0.0002222
        k(  670) = (  -0.0589256  -0.3889087   0.3889087), wk =   0.0002222
        k(  671) = (  -0.0471405  -0.3771236   0.3771236), wk =   0.0002222
        k(  672) = (  -0.0353553  -0.3653385   0.3653385), wk =   0.0002222
        k(  673) = (  -0.0235702  -0.3535534   0.3535534), wk =   0.0002222
        k(  674) = (  -0.0117851  -0.3417683   0.3417683), wk =   0.0002222
        k(  675) = (   0.0000000  -0.3299832   0.3299832), wk =   0.0001111
        k(  676) = (   0.3535534   0.0000000   0.0000000), wk =   0.0000556
        k(  677) = (   0.3653385   0.0117851  -0.0117851), wk =   0.0002222
        k(  678) = (   0.3771236   0.0235702  -0.0235702), wk =   0.0002222
        k(  679) = (   0.3889087   0.0353553  -0.0353553), wk =   0.0002222
        k(  680) = (   0.4006938   0.0471405  -0.0471405), wk =   0.0002222
        k(  681) = (   0.4124790   0.0589256  -0.0589256), wk =   0.0002222
        k(  682) = (   0.4242641   0.0707107  -0.0707107), wk =   0.0002222
        k(  683) = (   0.4360492   0.0824958  -0.0824958), wk =   0.0002222
        k(  684) = (   0.4478343   0.0942809  -0.0942809), wk =   0.0002222
        k(  685) = (   0.4596194   0.1060660  -0.1060660), wk =   0.0002222
        k(  686) = (   0.4714045   0.1178511  -0.1178511), wk =   0.0002222
        k(  687) = (   0.4831896   0.1296362  -0.1296362), wk =   0.0002222
        k(  688) = (   0.4949747   0.1414214  -0.1414214), wk =   0.0002222
        k(  689) = (   0.5067599   0.1532065  -0.1532065), wk =   0.0002222
        k(  690) = (   0.5185450   0.1649916  -0.1649916), wk =   0.0002222
        k(  691) = (  -0.1767767  -0.5303301   0.5303301), wk =   0.0002222
        k(  692) = (  -0.1649916  -0.5185450   0.5185450), wk =   0.0002222
        k(  693) = (  -0.1532065  -0.5067599   0.5067599), wk =   0.0002222
        k(  694) = (  -0.1414214  -0.4949747   0.4949747), wk =   0.0002222
        k(  695) = (  -0.1296362  -0.4831896   0.4831896), wk =   0.0002222
        k(  696) = (  -0.1178511  -0.4714045   0.4714045), wk =   0.0002222
        k(  697) = (  -0.1060660  -0.4596194   0.4596194), wk =   0.0002222
        k(  698) = (  -0.0942809  -0.4478343   0.4478343), wk =   0.0002222
        k(  699) = (  -0.0824958  -0.4360492   0.4360492), wk =   0.0002222
        k(  700) = (  -0.0707107  -0.4242641   0.4242641), wk =   0.0002222
        k(  701) = (  -0.0589256  -0.4124790   0.4124790), wk =   0.0002222
        k(  702) = (  -0.0471405  -0.4006938   0.4006938), wk =   0.0002222
        k(  703) = (  -0.0353553  -0.3889087   0.3889087), wk =   0.0002222
        k(  704) = (  -0.0235702  -0.3771236   0.3771236), wk =   0.0002222
        k(  705) = (  -0.0117851  -0.3653385   0.3653385), wk =   0.0002222
        k(  706) = (   0.0000000  -0.3535534   0.3535534), wk =   0.0001111
        k(  707) = (   0.3771236   0.0000000   0.0000000), wk =   0.0000556
        k(  708) = (   0.3889087   0.0117851  -0.0117851), wk =   0.0002222
        k(  709) = (   0.4006938   0.0235702  -0.0235702), wk =   0.0002222
        k(  710) = (   0.4124790   0.0353553  -0.0353553), wk =   0.0002222
        k(  711) = (   0.4242641   0.0471405  -0.0471405), wk =   0.0002222
        k(  712) = (   0.4360492   0.0589256  -0.0589256), wk =   0.0002222
        k(  713) = (   0.4478343   0.0707107  -0.0707107), wk =   0.0002222
        k(  714) = (   0.4596194   0.0824958  -0.0824958), wk =   0.0002222
        k(  715) = (   0.4714045   0.0942809  -0.0942809), wk =   0.0002222
        k(  716) = (   0.4831896   0.1060660  -0.1060660), wk =   0.0002222
        k(  717) = (   0.4949747   0.1178511  -0.1178511), wk =   0.0002222
        k(  718) = (   0.5067599   0.1296362  -0.1296362), wk =   0.0002222
        k(  719) = (   0.5185450   0.1414214  -0.1414214), wk =   0.0002222
        k(  720) = (   0.5303301   0.1532065  -0.1532065), wk =   0.0002222
        k(  721) = (  -0.1649916  -0.5421152   0.5421152), wk =   0.0002222
        k(  722) = (  -0.1532065  -0.5303301   0.5303301), wk =   0.0002222
        k(  723) = (  -0.1414214  -0.5185450   0.5185450), wk =   0.0002222
        k(  724) = (  -0.1296362  -0.5067599   0.5067599), wk =   0.0002222
        k(  725) = (  -0.1178511  -0.4949747   0.4949747), wk =   0.0002222
        k(  726) = (  -0.1060660  -0.4831896   0.4831896), wk =   0.0002222
        k(  727) = (  -0.0942809  -0.4714045   0.4714045), wk =   0.0002222
        k(  728) = (  -0.0824958  -0.4596194   0.4596194), wk =   0.0002222
        k(  729) = (  -0.0707107  -0.4478343   0.4478343), wk =   0.0002222
        k(  730) = (  -0.0589256  -0.4360492   0.4360492), wk =   0.0002222
        k(  731) = (  -0.0471405  -0.4242641   0.4242641), wk =   0.0002222
        k(  732) = (  -0.0353553  -0.4124790   0.4124790), wk =   0.0002222
        k(  733) = (  -0.0235702  -0.4006938   0.4006938), wk =   0.0002222
        k(  734) = (  -0.0117851  -0.3889087   0.3889087), wk =   0.0002222
        k(  735) = (  -0.0000000  -0.3771236   0.3771236), wk =   0.0001111
        k(  736) = (   0.4006938   0.0000000   0.0000000), wk =   0.0000556
        k(  737) = (   0.4124790   0.0117851  -0.0117851), wk =   0.0002222
        k(  738) = (   0.4242641   0.0235702  -0.0235702), wk =   0.0002222
        k(  739) = (   0.4360492   0.0353553  -0.0353553), wk =   0.0002222
        k(  740) = (   0.4478343   0.0471405  -0.0471405), wk =   0.0002222
        k(  741) = (   0.4596194   0.0589256  -0.0589256), wk =   0.0002222
        k(  742) = (   0.4714045   0.0707107  -0.0707107), wk =   0.0002222
        k(  743) = (   0.4831896   0.0824958  -0.0824958), wk =   0.0002222
        k(  744) = (   0.4949747   0.0942809  -0.0942809), wk =   0.0002222
        k(  745) = (   0.5067599   0.1060660  -0.1060660), wk =   0.0002222
        k(  746) = (   0.5185450   0.1178511  -0.1178511), wk =   0.0002222
        k(  747) = (   0.5303301   0.1296362  -0.1296362), wk =   0.0002222
        k(  748) = (   0.5421152   0.1414214  -0.1414214), wk =   0.0002222
        k(  749) = (  -0.1532065  -0.5539003   0.5539003), wk =   0.0002222
        k(  750) = (  -0.1414214  -0.5421152   0.5421152), wk =   0.0002222
        k(  751) = (  -0.1296362  -0.5303301   0.5303301), wk =   0.0002222
        k(  752) = (  -0.1178511  -0.5185450   0.5185450), wk =   0.0002222
        k(  753) = (  -0.1060660  -0.5067599   0.5067599), wk =   0.0002222
        k(  754) = (  -0.0942809  -0.4949747   0.4949747), wk =   0.0002222
        k(  755) = (  -0.0824958  -0.4831896   0.4831896), wk =   0.0002222
        k(  756) = (  -0.0707107  -0.4714045   0.4714045), wk =   0.0002222
        k(  757) = (  -0.0589256  -0.4596194   0.4596194), wk =   0.0002222
        k(  758) = (  -0.0471405  -0.4478343   0.4478343), wk =   0.0002222
        k(  759) = (  -0.0353553  -0.4360492   0.4360492), wk =   0.0002222
        k(  760) = (  -0.0235702  -0.4242641   0.4242641), wk =   0.0002222
        k(  761) = (  -0.0117851  -0.4124790   0.4124790), wk =   0.0002222
        k(  762) = (   0.0000000  -0.4006938   0.4006938), wk =   0.0001111
        k(  763) = (   0.4242641   0.0000000   0.0000000), wk =   0.0000556
        k(  764) = (   0.4360492   0.0117851  -0.0117851), wk =   0.0002222
        k(  765) = (   0.4478343   0.0235702  -0.0235702), wk =   0.0002222
        k(  766) = (   0.4596194   0.0353553  -0.0353553), wk =   0.0002222
        k(  767) = (   0.4714045   0.0471405  -0.0471405), wk =   0.0002222
        k(  768) = (   0.4831896   0.0589256  -0.0589256), wk =   0.0002222
        k(  769) = (   0.4949747   0.0707107  -0.0707107), wk =   0.0002222
        k(  770) = (   0.5067599   0.0824958  -0.0824958), wk =   0.0002222
        k(  771) = (   0.5185450   0.0942809  -0.0942809), wk =   0.0002222
        k(  772) = (   0.5303301   0.1060660  -0.1060660), wk =   0.0002222
        k(  773) = (   0.5421152   0.1178511  -0.1178511), wk =   0.0002222
        k(  774) = (   0.5539003   0.1296362  -0.1296362), wk =   0.0002222
        k(  775) = (  -0.1414214  -0.5656854   0.5656854), wk =   0.0002222
        k(  776) = (  -0.1296362  -0.5539003   0.5539003), wk =   0.0002222
        k(  777) = (  -0.1178511  -0.5421152   0.5421152), wk =   0.0002222
        k(  778) = (  -0.1060660  -0.5303301   0.5303301), wk =   0.0002222
        k(  779) = (  -0.0942809  -0.5185450   0.5185450), wk =   0.0002222
        k(  780) = (  -0.0824958  -0.5067599   0.5067599), wk =   0.0002222
        k(  781) = (  -0.0707107  -0.4949747   0.4949747), wk =   0.0002222
        k(  782) = (  -0.0589256  -0.4831896   0.4831896), wk =   0.0002222
        k(  783) = (  -0.0471405  -0.4714045   0.4714045), wk =   0.0002222
        k(  784) = (  -0.0353553  -0.4596194   0.4596194), wk =   0.0002222
        k(  785) = (  -0.0235702  -0.4478343   0.4478343), wk =   0.0002222
        k(  786) = (  -0.0117851  -0.4360492   0.4360492), wk =   0.0002222
        k(  787) = (  -0.0000000  -0.4242641   0.4242641), wk =   0.0001111
        k(  788) = (   0.4478343   0.0000000   0.0000000), wk =   0.0000556
        k(  789) = (   0.4596194   0.0117851  -0.0117851), wk =   0.0002222
        k(  790) = (   0.4714045   0.0235702  -0.0235702), wk =   0.0002222
        k(  791) = (   0.4831896   0.0353553  -0.0353553), wk =   0.0002222
        k(  792) = (   0.4949747   0.0471405  -0.0471405), wk =   0.0002222
        k(  793) = (   0.5067599   0.0589256  -0.0589256), wk =   0.0002222
        k(  794) = (   0.5185450   0.0707107  -0.0707107), wk =   0.0002222
        k(  795) = (   0.5303301   0.0824958  -0.0824958), wk =   0.0002222
        k(  796) = (   0.5421152   0.0942809  -0.0942809), wk =   0.0002222
        k(  797) = (   0.5539003   0.1060660  -0.1060660), wk =   0.0002222
        k(  798) = (   0.5656854   0.1178511  -0.1178511), wk =   0.0002222
        k(  799) = (  -0.1296362  -0.5774705   0.5774705), wk =   0.0002222
        k(  800) = (  -0.1178511  -0.5656854   0.5656854), wk =   0.0002222
        k(  801) = (  -0.1060660  -0.5539003   0.5539003), wk =   0.0002222
        k(  802) = (  -0.0942809  -0.5421152   0.5421152), wk =   0.0002222
        k(  803) = (  -0.0824958  -0.5303301   0.5303301), wk =   0.0002222
        k(  804) = (  -0.0707107  -0.5185450   0.5185450), wk =   0.0002222
        k(  805) = (  -0.0589256  -0.5067599   0.5067599), wk =   0.0002222
        k(  806) = (  -0.0471405  -0.4949747   0.4949747), wk =   0.0002222
        k(  807) = (  -0.0353553  -0.4831896   0.4831896), wk =   0.0002222
        k(  808) = (  -0.0235702  -0.4714045   0.4714045), wk =   0.0002222
        k(  809) = (  -0.0117851  -0.4596194   0.4596194), wk =   0.0002222
        k(  810) = (   0.0000000  -0.4478343   0.4478343), wk =   0.0001111
        k(  811) = (   0.4714045   0.0000000   0.0000000), wk =   0.0000556
        k(  812) = (   0.4831896   0.0117851  -0.0117851), wk =   0.0002222
        k(  813) = (   0.4949747   0.0235702  -0.0235702), wk =   0.0002222
        k(  814) = (   0.5067599   0.0353553  -0.0353553), wk =   0.0002222
        k(  815) = (   0.5185450   0.0471405  -0.0471405), wk =   0.0002222
        k(  816) = (   0.5303301   0.0589256  -0.0589256), wk =   0.0002222
        k(  817) = (   0.5421152   0.0707107  -0.0707107), wk =   0.0002222
        k(  818) = (   0.5539003   0.0824958  -0.0824958), wk =   0.0002222
        k(  819) = (   0.5656854   0.0942809  -0.0942809), wk =   0.0002222
        k(  820) = (   0.5774705   0.1060660  -0.1060660), wk =   0.0002222
        k(  821) = (  -0.1178511  -0.5892557   0.5892557), wk =   0.0002222
        k(  822) = (  -0.1060660  -0.5774705   0.5774705), wk =   0.0002222
        k(  823) = (  -0.0942809  -0.5656854   0.5656854), wk =   0.0002222
        k(  824) = (  -0.0824958  -0.5539003   0.5539003), wk =   0.0002222
        k(  825) = (  -0.0707107  -0.5421152   0.5421152), wk =   0.0002222
        k(  826) = (  -0.0589256  -0.5303301   0.5303301), wk =   0.0002222
        k(  827) = (  -0.0471405  -0.5185450   0.5185450), wk =   0.0002222
        k(  828) = (  -0.0353553  -0.5067599   0.5067599), wk =   0.0002222
        k(  829) = (  -0.0235702  -0.4949747   0.4949747), wk =   0.0002222
        k(  830) = (  -0.0117851  -0.4831896   0.4831896), wk =   0.0002222
        k(  831) = (  -0.0000000  -0.4714045   0.4714045), wk =   0.0001111
        k(  832) = (   0.4949747   0.0000000   0.0000000), wk =   0.0000556
        k(  833) = (   0.5067599   0.0117851  -0.0117851), wk =   0.0002222
        k(  834) = (   0.5185450   0.0235702  -0.0235702), wk =   0.0002222
        k(  835) = (   0.5303301   0.0353553  -0.0353553), wk =   0.0002222
        k(  836) = (   0.5421152   0.0471405  -0.0471405), wk =   0.0002222
        k(  837) = (   0.5539003   0.0589256  -0.0589256), wk =   0.0002222
        k(  838) = (   0.5656854   0.0707107  -0.0707107), wk =   0.0002222
        k(  839) = (   0.5774705   0.0824958  -0.0824958), wk =   0.0002222
        k(  840) = (   0.5892557   0.0942809  -0.0942809), wk =   0.0002222
        k(  841) = (  -0.1060660  -0.6010408   0.6010408), wk =   0.0002222
        k(  842) = (  -0.0942809  -0.5892557   0.5892557), wk =   0.0002222
        k(  843) = (  -0.0824958  -0.5774705   0.5774705), wk =   0.0002222
        k(  844) = (  -0.0707107  -0.5656854   0.5656854), wk =   0.0002222
        k(  845) = (  -0.0589256  -0.5539003   0.5539003), wk =   0.0002222
        k(  846) = (  -0.0471405  -0.5421152   0.5421152), wk =   0.0002222
        k(  847) = (  -0.0353553  -0.5303301   0.5303301), wk =   0.0002222
        k(  848) = (  -0.0235702  -0.5185450   0.5185450), wk =   0.0002222
        k(  849) = (  -0.0117851  -0.5067599   0.5067599), wk =   0.0002222
        k(  850) = (   0.0000000  -0.4949747   0.4949747), wk =   0.0001111
        k(  851) = (   0.5185450   0.0000000   0.0000000), wk =   0.0000556
        k(  852) = (   0.5303301   0.0117851  -0.0117851), wk =   0.0002222
        k(  853) = (   0.5421152   0.0235702  -0.0235702), wk =   0.0002222
        k(  854) = (   0.5539003   0.0353553  -0.0353553), wk =   0.0002222
        k(  855) = (   0.5656854   0.0471405  -0.0471405), wk =   0.0002222
        k(  856) = (   0.5774705   0.0589256  -0.0589256), wk =   0.0002222
        k(  857) = (   0.5892557   0.0707107  -0.0707107), wk =   0.0002222
        k(  858) = (   0.6010408   0.0824958  -0.0824958), wk =   0.0002222
        k(  859) = (  -0.0942809  -0.6128259   0.6128259), wk =   0.0002222
        k(  860) = (  -0.0824958  -0.6010408   0.6010408), wk =   0.0002222
        k(  861) = (  -0.0707107  -0.5892557   0.5892557), wk =   0.0002222
        k(  862) = (  -0.0589256  -0.5774705   0.5774705), wk =   0.0002222
        k(  863) = (  -0.0471405  -0.5656854   0.5656854), wk =   0.0002222
        k(  864) = (  -0.0353553  -0.5539003   0.5539003), wk =   0.0002222
        k(  865) = (  -0.0235702  -0.5421152   0.5421152), wk =   0.0002222
        k(  866) = (  -0.0117851  -0.5303301   0.5303301), wk =   0.0002222
[...]

    -5.4055  -1.7120   1.3483   1.7023   9.0055   9.3037  10.9820  11.8538
    15.8022  17.4186  18.2574  19.2839  21.7886  22.7869  23.4576  23.7453
    24.4971  25.4535  27.5803  28.2115

     occupation numbers 
     1.0000   1.0000   1.0000   1.0000   0.0000   0.0000   0.0000   0.0000
     0.0000   0.0000   0.0000   0.0000   0.0000   0.0000   0.0000   0.0000
     0.0000   0.0000   0.0000   0.0000

          k =-0.0236-0.4007 0.6835 (  2952 PWs)   bands (ev):

    -5.3975  -1.7139   1.3159   1.6929   9.0569   9.5447  10.9376  11.5629
    15.8304  17.4137  18.2414  19.2990  21.8387  22.8691  23.3155  23.9465
    24.3744  25.5585  27.3567  28.4765

     occupation numbers 
     1.0000   1.0000   1.0000   1.0000   0.0000   0.0000   0.0000   0.0000
     0.0000   0.0000   0.0000   0.0000   0.0000   0.0000   0.0000   0.0000
     0.0000   0.0000   0.0000   0.0000

          k =-0.0118-0.3889 0.6718 (  2956 PWs)   bands (ev):

    -5.3972  -1.7098   1.2753   1.7142   9.0989   9.7687  10.8732  11.3430
    15.7931  17.3660  18.2625  19.3577  21.8152  22.7218  23.4447  24.0917
    24.3317  25.7029  27.1424  28.6454

     occupation numbers 
     1.0000   1.0000   1.0000   1.0000   0.0000   0.0000   0.0000   0.0000
     0.0000   0.0000   0.0000   0.0000   0.0000   0.0000   0.0000   0.0000
     0.0000   0.0000   0.0000   0.0000

          k =-0.0000-0.3771 0.6600 (  2955 PWs)   bands (ev):

    -5.4046  -1.7001   1.2347   1.7584   9.1368   9.9353  10.7427  11.2755
    15.6919  17.2928  18.3067  19.4499  21.7082  22.5473  23.6383  24.1298
    24.4280  25.8857  26.9526  28.6564

     occupation numbers 
     1.0000   1.0000   1.0000   1.0000   0.0000   0.0000   0.0000   0.0000
     0.0000   0.0000   0.0000   0.0000   0.0000   0.0000   0.0000   0.0000
     0.0000   0.0000   0.0000   0.0000

          k =-0.0236-0.4243 0.7071 (  2946 PWs)   bands (ev):

    -5.3964  -1.7284   1.4049   1.6633   8.9051   9.0843  11.2817  11.8959
    15.9115  17.4251  18.2851  19.1735  21.9706  22.9228  23.3781  23.6398
    24.3360  25.1771  27.8523  28.2580

     occupation numbers 
     1.0000   1.0000   1.0000   1.0000   0.0000   0.0000   0.0000   0.0000
     0.0000   0.0000   0.0000   0.0000   0.0000   0.0000   0.0000   0.0000
     0.0000   0.0000   0.0000   0.0000

          k =-0.0118-0.4125 0.6953 (  2949 PWs)   bands (ev):

    -5.3898  -1.7272   1.3793   1.6406   9.0055   9.2929  11.2114  11.6043
    15.9500  17.4128  18.2875  19.1688  22.0223  22.9802  23.2763  23.7561
    24.2733  25.3066  27.6209  28.4732

     occupation numbers 
     1.0000   1.0000   1.0000   1.0000   0.0000   0.0000   0.0000   0.0000
     0.0000   0.0000   0.0000   0.0000   0.0000   0.0000   0.0000   0.0000
     0.0000   0.0000   0.0000   0.0000

          k =-0.0000-0.4007 0.6835 (  2953 PWs)   bands (ev):

    -5.3901  -1.7207   1.3300   1.6633   9.0565   9.5426  11.0828  11.4041
    15.9092  17.3923  18.2769  19.2373  21.9698  22.8465  23.3669  23.8862
    24.2910  25.4851  27.3763  28.6065

     occupation numbers 
     1.0000   1.0000   1.0000   1.0000   0.0000   0.0000   0.0000   0.0000
     0.0000   0.0000   0.0000   0.0000   0.0000   0.0000   0.0000   0.0000
     0.0000   0.0000   0.0000   0.0000

          k =-0.7071 0.2828 0.0000 (  2946 PWs)   bands (ev):

    -5.3882  -1.7368   1.4250   1.6281   8.9062   9.0762  11.4575  11.7122
    15.9887  17.4137  18.3105  19.1085  22.1132  23.0879  23.1963  23.6841
    24.1917  25.0946  27.8731  28.4202

     occupation numbers 
     1.0000   1.0000   1.0000   1.0000   0.0000   0.0000   0.0000   0.0000
     0.0000   0.0000   0.0000   0.0000   0.0000   0.0000   0.0000   0.0000
     0.0000   0.0000   0.0000   0.0000

          k =-0.0943-0.4007 0.7071 (  2949 PWs)   bands (ev):

    -5.5006  -1.6142   1.2382   1.9845   9.1469   9.4795  10.2943  12.3987
    15.1036  16.9313  18.6289  19.6412  21.0359  22.1039  23.2848  24.5810
    25.4996  26.2514  27.1497  27.3206

     occupation numbers 
     1.0000   1.0000   1.0000   1.0000   0.0000   0.0000   0.0000   0.0000
     0.0000   0.0000   0.0000   0.0000   0.0000   0.0000   0.0000   0.0000
     0.0000   0.0000   0.0000   0.0000

          k =-0.0825-0.3889 0.6953 (  2949 PWs)   bands (ev):

    -5.4701  -1.6415   1.2203   1.9243   9.2210   9.6193  10.3174  12.0858
    15.2405  17.0559  18.5085  19.6230  21.1926  22.2222  23.5116  24.3051
    25.2521  26.2626  26.9953  27.6516

     occupation numbers 
     1.0000   1.0000   1.0000   1.0000   0.0000   0.0000   0.0000   0.0000
     0.0000   0.0000   0.0000   0.0000   0.0000   0.0000   0.0000   0.0000
     0.0000   0.0000   0.0000   0.0000

          k =-0.0707-0.3771 0.6835 (  2951 PWs)   bands (ev):

    -5.4477  -1.6617   1.2088   1.8794   9.2532   9.7388  10.4000  11.7952
    15.3368  17.2035  18.3572  19.6019  21.3175  22.3975  23.6272  24.1142
    25.0416  26.2593  26.8575  28.0033

     occupation numbers 
     1.0000   1.0000   1.0000   1.0000   0.0000   0.0000   0.0000   0.0000
     0.0000   0.0000   0.0000   0.0000   0.0000   0.0000   0.0000   0.0000
     0.0000   0.0000   0.0000   0.0000

          k =-0.0589-0.3653 0.6718 (  2952 PWs)   bands (ev):

    -5.4340  -1.6740   1.2026   1.8516   9.2679   9.8022  10.5225  11.5602
    15.3929  17.3426  18.2129  19.5886  21.3893  22.6119  23.4807  24.1635
    24.8757  26.2474  26.7719  28.3090

     occupation numbers 
     1.0000   1.0000   1.0000   1.0000   0.0000   0.0000   0.0000   0.0000
     0.0000   0.0000   0.0000   0.0000   0.0000   0.0000   0.0000   0.0000
     0.0000   0.0000   0.0000   0.0000

          k =-0.0471-0.3536 0.6600 (  2956 PWs)   bands (ev):

    -5.4294  -1.6781   1.2006   1.8422   9.2724   9.8200  10.5899  11.4591
    15.4112  17.4067  18.1465  19.5843  21.4118  22.7406  23.3482  24.2302
    24.8008  26.2406  26.7438  28.4520

     occupation numbers 
     1.0000   1.0000   1.0000   1.0000   0.0000   0.0000   0.0000   0.0000
     0.0000   0.0000   0.0000   0.0000   0.0000   0.0000   0.0000   0.0000
     0.0000   0.0000   0.0000   0.0000

          k =-0.0707-0.4007 0.7071 (  2951 PWs)   bands (ev):

    -5.4515  -1.6615   1.2689   1.8483   9.1827   9.4381  10.4852  12.1047
    15.4255  17.1925  18.4252  19.5216  21.3366  22.3291  23.5119  24.1193
    25.0515  25.9851  27.2617  27.7183

     occupation numbers 
     1.0000   1.0000   1.0000   1.0000   0.0000   0.0000   0.0000   0.0000
     0.0000   0.0000   0.0000   0.0000   0.0000   0.0000   0.0000   0.0000
     0.0000   0.0000   0.0000   0.0000

          k =-0.0589-0.3889 0.6953 (  2952 PWs)   bands (ev):

    -5.4296  -1.6789   1.2593   1.7939   9.2701   9.5943  10.4841  11.7969
    15.5491  17.2904  18.3271  19.4809  21.4765  22.4773  23.6657  23.9304
    24.8182  26.0244  27.0821  28.0451

     occupation numbers 
     1.0000   1.0000   1.0000   1.0000   0.0000   0.0000   0.0000   0.0000
     0.0000   0.0000   0.0000   0.0000   0.0000   0.0000   0.0000   0.0000
     0.0000   0.0000   0.0000   0.0000

          k =-0.0471-0.3771 0.6835 (  2953 PWs)   bands (ev):

    -5.4156  -1.6896   1.2506   1.7607   9.3101   9.7489  10.5196  11.5238
    15.6230  17.3809  18.2296  19.4593  21.5646  22.6684  23.4741  24.0682
    24.6311  26.0745  26.9159  28.3422

     occupation numbers 
     1.0000   1.0000   1.0000   1.0000   0.0000   0.0000   0.0000   0.0000
     0.0000   0.0000   0.0000   0.0000   0.0000   0.0000   0.0000   0.0000
     0.0000   0.0000   0.0000   0.0000

          k =-0.0354-0.3653 0.6718 (  2958 PWs)   bands (ev):

    -5.4099  -1.6933   1.2411   1.7509   9.3341   9.8437  10.5673  11.3380
    15.6462  17.4144  18.1885  19.4595  21.5966  22.7892  23.3239  24.2301
    24.4993  26.1405  26.7866  28.5302

     occupation numbers 
     1.0000   1.0000   1.0000   1.0000   0.0000   0.0000   0.0000   0.0000
     0.0000   0.0000   0.0000   0.0000   0.0000   0.0000   0.0000   0.0000
     0.0000   0.0000   0.0000   0.0000

          k =-0.0236-0.3536 0.6600 (  2954 PWs)   bands (ev):

    -5.4127  -1.6901   1.2309   1.7648   9.3474   9.8678  10.5372  11.3355
    15.6191  17.3602  18.2369  19.4805  21.5746  22.6566  23.4747  24.1881
    24.5570  26.2171  26.7148  28.4986

     occupation numbers 
     1.0000   1.0000   1.0000   1.0000   0.0000   0.0000   0.0000   0.0000
     0.0000   0.0000   0.0000   0.0000   0.0000   0.0000   0.0000   0.0000
     0.0000   0.0000   0.0000   0.0000

          k =-0.0118-0.3418 0.6482 (  2952 PWs)   bands (ev):

    -5.4239  -1.6801   1.2221   1.8005   9.3461   9.8250  10.4311  11.5147
    15.5414  17.2546  18.3372  19.5211  21.4931  22.4574  23.7381  24.0172
    24.7399  26.2730  26.7303  28.2712

     occupation numbers 
     1.0000   1.0000   1.0000   1.0000   0.0000   0.0000   0.0000   0.0000
     0.0000   0.0000   0.0000   0.0000   0.0000   0.0000   0.0000   0.0000
     0.0000   0.0000   0.0000   0.0000

          k = 0.0000-0.3300 0.6364 (  2953 PWs)   bands (ev):

    -5.4432  -1.6638   1.2177   1.8547   9.3151   9.7248  10.3474  11.7819
    15.4138  17.1451  18.4373  19.5755  21.3540  22.3108  23.7423  24.0672
    24.9712  26.2815  26.8416  27.9644

     occupation numbers 
     1.0000   1.0000   1.0000   1.0000   0.0000   0.0000   0.0000   0.0000
     0.0000   0.0000   0.0000   0.0000   0.0000   0.0000   0.0000   0.0000
     0.0000   0.0000   0.0000   0.0000

          k =-0.0471-0.4007 0.7071 (  2947 PWs)   bands (ev):

    -5.4154  -1.6960   1.3109   1.7300   9.2073   9.4026  10.7035  11.8178
    15.7080  17.3682  18.2913  19.3587  21.6467  22.6126  23.6958  23.7047
    24.6414  25.7415  27.3430  28.1127

     occupation numbers 
     1.0000   1.0000   1.0000   1.0000   0.0000   0.0000   0.0000   0.0000
     0.0000   0.0000   0.0000   0.0000   0.0000   0.0000   0.0000   0.0000
     0.0000   0.0000   0.0000   0.0000

          k =-0.0354-0.3889 0.6953 (  2952 PWs)   bands (ev):

    -5.4018  -1.7042   1.3061   1.6855   9.2984   9.5753  10.6819  11.5234
    15.8028  17.4061  18.2540  19.3130  21.7605  22.7664  23.4459  23.8964
    24.4767  25.8222  27.1475  28.3836

     occupation numbers 
     1.0000   1.0000   1.0000   1.0000   0.0000   0.0000   0.0000   0.0000
     0.0000   0.0000   0.0000   0.0000   0.0000   0.0000   0.0000   0.0000
     0.0000   0.0000   0.0000   0.0000

          k =-0.0236-0.3771 0.6835 (  2960 PWs)   bands (ev):

    -5.3959  -1.7065   1.2919   1.6727   9.3382   9.7567  10.6689  11.2872
    15.8337  17.4141  18.2370  19.3105  21.8043  22.8602  23.3021  24.0260
    24.3973  25.9317  26.9602  28.5770

     occupation numbers 
     1.0000   1.0000   1.0000   1.0000   0.0000   0.0000   0.0000   0.0000
     0.0000   0.0000   0.0000   0.0000   0.0000   0.0000   0.0000   0.0000
     0.0000   0.0000   0.0000   0.0000

          k =-0.0118-0.3653 0.6718 (  2961 PWs)   bands (ev):

    -5.3977  -1.7030   1.2691   1.6915   9.3627   9.8739  10.6187  11.1928
    15.7984  17.3795  18.2569  19.3505  21.7733  22.7283  23.4386  24.0690
    24.4085  26.0680  26.8040  28.6251

     occupation numbers 
     1.0000   1.0000   1.0000   1.0000   0.0000   0.0000   0.0000   0.0000
     0.0000   0.0000   0.0000   0.0000   0.0000   0.0000   0.0000   0.0000
     0.0000   0.0000   0.0000   0.0000

          k = 0.0000-0.3536 0.6600 (  2957 PWs)   bands (ev):

    -5.4071  -1.6940   1.2437   1.7362   9.3711   9.8936  10.5127  11.2927
    15.6989  17.3181  18.2988  19.4263  21.6634  22.5633  23.6462  24.0357
    24.5212  26.2042  26.7093  28.5028

     occupation numbers 
     1.0000   1.0000   1.0000   1.0000   0.0000   0.0000   0.0000   0.0000
     0.0000   0.0000   0.0000   0.0000   0.0000   0.0000   0.0000   0.0000
     0.0000   0.0000   0.0000   0.0000

          k =-0.0236-0.4007 0.7071 (  2954 PWs)   bands (ev):

    -5.3932  -1.7170   1.3570   1.6378   9.2236   9.3773  10.9324  11.5496
    15.9161  17.4175  18.2774  19.2027  21.9237  22.9057  23.3591  23.7568
    24.3738  25.5553  27.3952  28.4295

     occupation numbers 
     1.0000   1.0000   1.0000   1.0000   0.0000   0.0000   0.0000   0.0000
     0.0000   0.0000   0.0000   0.0000   0.0000   0.0000   0.0000   0.0000
     0.0000   0.0000   0.0000   0.0000

          k =-0.0118-0.3889 0.6953 (  2960 PWs)   bands (ev):

    -5.3878  -1.7170   1.3456   1.6149   9.3113   9.5649  10.8738  11.2955
    15.9556  17.4110  18.2816  19.1869  21.9735  22.9635  23.2758  23.7815
    24.3675  25.6979  27.1826  28.5906

     occupation numbers 
     1.0000   1.0000   1.0000   1.0000   0.0000   0.0000   0.0000   0.0000
     0.0000   0.0000   0.0000   0.0000   0.0000   0.0000   0.0000   0.0000
     0.0000   0.0000   0.0000   0.0000

          k =-0.0000-0.3771 0.6835 (  2957 PWs)   bands (ev):

    -5.3893  -1.7121   1.3114   1.6375   9.3464   9.7595  10.7627  11.1652
    15.9149  17.3977  18.2727  19.2420  21.9210  22.8469  23.3615  23.8757
    24.3885  25.8762  26.9763  28.6584

     occupation numbers 
     1.0000   1.0000   1.0000   1.0000   0.0000   0.0000   0.0000   0.0000
     0.0000   0.0000   0.0000   0.0000   0.0000   0.0000   0.0000   0.0000
     0.0000   0.0000   0.0000   0.0000

          k =-0.7071 0.3064 0.0000 (  2954 PWs)   bands (ev):

    -5.3857  -1.7241   1.3819   1.5974   9.2297   9.3677  11.0855  11.3837
    15.9962  17.4103  18.3028  19.1320  22.0536  23.0480  23.2373  23.6819
    24.3172  25.4815  27.4133  28.5607

     occupation numbers 
     1.0000   1.0000   1.0000   1.0000   0.0000   0.0000   0.0000   0.0000
     0.0000   0.0000   0.0000   0.0000   0.0000   0.0000   0.0000   0.0000
     0.0000   0.0000   0.0000   0.0000

          k =-0.0471-0.3771 0.7071 (  2951 PWs)   bands (ev):

    -5.4107  -1.6927   1.2693   1.7267   9.4103   9.6754  10.4923  11.5059
    15.7042  17.3435  18.2935  19.3956  21.6429  22.5866  23.6633  23.8952
    24.5877  26.0792  26.9183  28.3142

     occupation numbers 
     1.0000   1.0000   1.0000   1.0000   0.0000   0.0000   0.0000   0.0000
     0.0000   0.0000   0.0000   0.0000   0.0000   0.0000   0.0000   0.0000
     0.0000   0.0000   0.0000   0.0000

          k =-0.0354-0.3653 0.6953 (  2958 PWs)   bands (ev):

    -5.3992  -1.7011   1.2794   1.6819   9.4642   9.7776  10.5339  11.2708
    15.8017  17.3931  18.2539  19.3356  21.7549  22.7441  23.4375  24.0062
    24.4536  26.1338  26.7808  28.5280

     occupation numbers 
     1.0000   1.0000   1.0000   1.0000   0.0000   0.0000   0.0000   0.0000
     0.0000   0.0000   0.0000   0.0000   0.0000   0.0000   0.0000   0.0000
     0.0000   0.0000   0.0000   0.0000

          k =-0.0236-0.3536 0.6835 (  2956 PWs)   bands (ev):

    -5.3954  -1.7040   1.2838   1.6659   9.4766   9.8215  10.5674  11.1685
    15.8348  17.4143  18.2354  19.3144  21.7925  22.8562  23.2973  24.0491
    24.4111  26.1598  26.7240  28.6137

     occupation numbers 
     1.0000   1.0000   1.0000   1.0000   0.0000   0.0000   0.0000   0.0000
     0.0000   0.0000   0.0000   0.0000   0.0000   0.0000   0.0000   0.0000
     0.0000   0.0000   0.0000   0.0000

          k =-0.0236-0.3771 0.7071 (  2959 PWs)   bands (ev):

    -5.3908  -1.7103   1.3250   1.6247   9.4801   9.6298  10.6625  11.2599
    15.9183  17.4106  18.2728  19.2245  21.8976  22.8796  23.3508  23.8249
    24.4175  25.9285  26.9692  28.5602

     occupation numbers 
     1.0000   1.0000   1.0000   1.0000   0.0000   0.0000   0.0000   0.0000
     0.0000   0.0000   0.0000   0.0000   0.0000   0.0000   0.0000   0.0000
     0.0000   0.0000   0.0000   0.0000

          k =-0.0118-0.3653 0.6953 (  2956 PWs)   bands (ev):

    -5.3867  -1.7117   1.3285   1.6019   9.5384   9.7396  10.6412  11.0919
    15.9585  17.4103  18.2785  19.1964  21.9476  22.9524  23.2733  23.7881
    24.4286  26.0471  26.8115  28.6521

     occupation numbers 
     1.0000   1.0000   1.0000   1.0000   0.0000   0.0000   0.0000   0.0000
     0.0000   0.0000   0.0000   0.0000   0.0000   0.0000   0.0000   0.0000
     0.0000   0.0000   0.0000   0.0000

          k = 0.0000-0.3536 0.6835 (  2953 PWs)   bands (ev):

    -5.3895  -1.7086   1.3097   1.6246   9.5320   9.7963  10.5853  11.1024
    15.9179  17.4039  18.2712  19.2378  21.8964  22.8581  23.3532  23.8578
    24.4313  26.1342  26.7311  28.6404

     occupation numbers 
     1.0000   1.0000   1.0000   1.0000   0.0000   0.0000   0.0000   0.0000
     0.0000   0.0000   0.0000   0.0000   0.0000   0.0000   0.0000   0.0000
     0.0000   0.0000   0.0000   0.0000

          k =-0.7071 0.3300 0.0000 (  2958 PWs)   bands (ev):

    -5.3841  -1.7162   1.3555   1.5787   9.5133   9.6040  10.7727  11.1251
    16.0009  17.4085  18.2981  19.1469  22.0143  23.0236  23.2520  23.6739
    24.4137  25.8705  26.9871  28.6470

     occupation numbers 
     1.0000   1.0000   1.0000   1.0000   0.0000   0.0000   0.0000   0.0000
     0.0000   0.0000   0.0000   0.0000   0.0000   0.0000   0.0000   0.0000
     0.0000   0.0000   0.0000   0.0000

          k =-0.7071 0.3536 0.0000 (  2936 PWs)   bands (ev):

    -5.3836  -1.7134   1.3466   1.5724   9.6472   9.7037  10.6290  11.0179
    16.0024  17.4080  18.2965  19.1520  22.0007  23.0154  23.2554  23.6703
    24.4495  26.1044  26.7417  28.6757

     occupation numbers 
     1.0000   1.0000   1.0000   1.0000   0.0000   0.0000   0.0000   0.0000
     0.0000   0.0000   0.0000   0.0000   0.0000   0.0000   0.0000   0.0000
     0.0000   0.0000   0.0000   0.0000

     highest occupied, lowest unoccupied level (ev):     5.0027    5.8020

     Writing output data file run_output/GaAs.save/

     init_run     :      0.18s CPU      0.24s WALL (       1 calls)
     electrons    :    156.57s CPU    160.54s WALL (       1 calls)

     Called by init_run:
     wfcinit      :      0.00s CPU      0.00s WALL (       1 calls)
     wfcinit:atom :      0.10s CPU      0.10s WALL (     652 calls)
     wfcinit:wfcr :      6.27s CPU      6.52s WALL (     652 calls)
     potinit      :      0.01s CPU      0.03s WALL (       1 calls)
     hinit0       :      0.03s CPU      0.03s WALL (       1 calls)

     Called by electrons:
     c_bands      :    156.44s CPU    160.13s WALL (       1 calls)
     v_of_rho     :      0.00s CPU      0.00s WALL (       1 calls)
     v_h          :      0.00s CPU      0.00s WALL (       1 calls)
     v_xc         :      0.00s CPU      0.00s WALL (       1 calls)

     Called by c_bands:
     init_us_2    :      0.10s CPU      0.10s WALL (     652 calls)
     cegterg      :     95.68s CPU     97.49s WALL (     964 calls)

     Called by sum_band:

     Called by *egterg:
     cdiaghg      :     22.25s CPU     22.77s WALL (   14463 calls)
     cegterg:over :      4.47s CPU      4.57s WALL (   13811 calls)
     cegterg:upda :      1.85s CPU      1.88s WALL (   13811 calls)
     cegterg:last :      2.66s CPU      2.70s WALL (    8287 calls)
     cdiaghg:chol :      1.16s CPU      1.23s WALL (   14463 calls)
     cdiaghg:inve :      0.85s CPU      0.87s WALL (   14463 calls)
     cdiaghg:para :      1.35s CPU      1.37s WALL (   28926 calls)
     h_psi        :     68.93s CPU     70.28s WALL (   15427 calls)
     g_psi        :      0.79s CPU      0.80s WALL (   13811 calls)

     Called by h_psi:
     h_psi:calbec :      0.94s CPU      0.98s WALL (   15427 calls)
     vloc_psi     :     67.36s CPU     68.67s WALL (   15427 calls)
     add_vuspsi   :      0.31s CPU      0.32s WALL (   15427 calls)

     General routines
     calbec       :      0.90s CPU      0.94s WALL (   15427 calls)
     fft          :      0.00s CPU      0.00s WALL (       4 calls)
     fftw         :     56.20s CPU     57.31s WALL (  338592 calls)
     davcio       :      0.08s CPU      1.50s WALL (    1304 calls)

     Parallel routines
     fft_scatt_xy :      8.75s CPU      8.89s WALL (  338596 calls)
     fft_scatt_yz :     14.09s CPU     14.39s WALL (  338596 calls)

     PWSCF        :   2m39.56s CPU   3m29.69s WALL


   This run was terminated on:  19:41:19   4Oct2021            

=------------------------------------------------------------------------------=
   JOB DONE.
=------------------------------------------------------------------------------=
