
     Program PWSCF v.6.7MaX starts on 19Mar2021 at 10:17:37 

     This program is part of the open-source Quantum ESPRESSO suite
     for quantum simulation of materials; please cite
         "P. Giannozzi et al., J. Phys.:Condens. Matter 21 395502 (2009);
         "P. Giannozzi et al., J. Phys.:Condens. Matter 29 465901 (2017);
          URL http://www.quantum-espresso.org", 
     in publications or presentations arising from this work. More details at
     http://www.quantum-espresso.org/quote

     Parallel version (MPI), running on    40 processors

     MPI processes distributed on     2 nodes
     R & G space division:  proc/nbgrp/npool/nimage =      40
     Waiting for input...
     Reading input from standard input
     Message from routine read_cards :
     DEPRECATED: no units specified in ATOMIC_POSITIONS card
     Message from routine read_cards :
     ATOMIC_POSITIONS: units set to alat

     Current dimensions of program PWSCF are:
     Max number of different atomic species (ntypx) = 10
     Max number of k-points (npk) =  40000
     Max angular momentum in pseudopotentials (lmaxx) =  3

     Atomic positions and unit cell read from directory:
     run_output/Si.save/


     Subspace diagonalization in iterative solution of the eigenvalue problem:
     a serial algorithm will be used


     Parallelization info
     --------------------
     sticks:   dense  smooth     PW     G-vecs:    dense   smooth      PW
     Min           5       5      2                   51       51      10
     Max           6       6      3                   54       54      13
     Sum         211     211     85                 2085     2085     459



     bravais-lattice index     =            2
     lattice parameter (alat)  =      10.1830  a.u.
     unit-cell volume          =     263.9777 (a.u.)^3
     number of atoms/cell      =            2
     number of atomic types    =            1
     number of electrons       =         8.00
     number of Kohn-Sham states=           25
     kinetic-energy cutoff     =      15.0000  Ry
     charge density cutoff     =      60.0000  Ry
     Exchange-correlation=  SLA  PZ   NOGX NOGC
                           (   1   1   0   0   0   0   0)

     celldm(1)=  10.183000  celldm(2)=   0.000000  celldm(3)=   0.000000
     celldm(4)=   0.000000  celldm(5)=   0.000000  celldm(6)=   0.000000

     crystal axes: (cart. coord. in units of alat)
               a(1) = (  -0.500000   0.000000   0.500000 )  
               a(2) = (   0.000000   0.500000   0.500000 )  
               a(3) = (  -0.500000   0.500000   0.000000 )  

     reciprocal axes: (cart. coord. in units 2 pi/alat)
               b(1) = ( -1.000000 -1.000000  1.000000 )  
               b(2) = (  1.000000  1.000000  1.000000 )  
               b(3) = ( -1.000000  1.000000 -1.000000 )  


     PseudoPot. # 1 for Si read from file:
     PPs/Si.vbc.UPF
     MD5 check sum: 7974b67c806a44bbea7c2da40a3c413a
     Pseudo is Norm-conserving, Zval =  4.0
     Generated by new atomic code, or converted to UPF format
     Using radial grid of  431 points,  2 beta functions with: 
                l(1) =   0
                l(2) =   1

     atomic species   valence    mass     pseudopotential
        Si             4.00    28.08600     Si( 1.00)

     24 Sym. Ops. (no inversion) found


                                    s                        frac. trans.

      isym =  1     identity                                     

 cryst.   s( 1) = (     1          0          0      )
                  (     0          1          0      )
                  (     0          0          1      )

 cart.    s( 1) = (  1.0000000  0.0000000  0.0000000 )
                  (  0.0000000  1.0000000  0.0000000 )
                  (  0.0000000  0.0000000  1.0000000 )


      isym =  2     180 deg rotation - cart. axis [0,0,1]        

 cryst.   s( 2) = (     0          1         -1      )
                  (     1          0         -1      )
                  (     0          0         -1      )

 cart.    s( 2) = ( -1.0000000  0.0000000  0.0000000 )
                  (  0.0000000 -1.0000000  0.0000000 )
                  (  0.0000000  0.0000000  1.0000000 )


      isym =  3     180 deg rotation - cart. axis [0,1,0]        

 cryst.   s( 3) = (    -1          0          0      )
                  (    -1          0          1      )
                  (    -1          1          0      )

 cart.    s( 3) = ( -1.0000000  0.0000000  0.0000000 )
                  (  0.0000000  1.0000000  0.0000000 )
                  (  0.0000000  0.0000000 -1.0000000 )


      isym =  4     180 deg rotation - cart. axis [1,0,0]        

 cryst.   s( 4) = (     0         -1          1      )
                  (     0         -1          0      )
                  (     1         -1          0      )

 cart.    s( 4) = (  1.0000000  0.0000000  0.0000000 )
                  (  0.0000000 -1.0000000  0.0000000 )
                  (  0.0000000  0.0000000 -1.0000000 )


      isym =  5     120 deg rotation - cart. axis [-1,-1,-1]     

 cryst.   s( 5) = (    -1          0          1      )
                  (    -1          1          0      )
                  (    -1          0          0      )

 cart.    s( 5) = (  0.0000000  1.0000000  0.0000000 )
                  (  0.0000000  0.0000000  1.0000000 )
                  (  1.0000000  0.0000000  0.0000000 )


      isym =  6     120 deg rotation - cart. axis [-1,1,1]       

 cryst.   s( 6) = (     0          1          0      )
                  (     0          0          1      )
                  (     1          0          0      )

 cart.    s( 6) = (  0.0000000 -1.0000000  0.0000000 )
                  (  0.0000000  0.0000000  1.0000000 )
                  ( -1.0000000  0.0000000  0.0000000 )


      isym =  7     120 deg rotation - cart. axis [1,1,-1]       

 cryst.   s( 7) = (     1          0         -1      )
                  (     0          0         -1      )
                  (     0          1         -1      )

 cart.    s( 7) = (  0.0000000  1.0000000  0.0000000 )
                  (  0.0000000  0.0000000 -1.0000000 )
                  ( -1.0000000  0.0000000  0.0000000 )


      isym =  8     120 deg rotation - cart. axis [1,-1,1]       

 cryst.   s( 8) = (     0         -1          0      )
                  (     1         -1          0      )
                  (     0         -1          1      )

 cart.    s( 8) = (  0.0000000 -1.0000000  0.0000000 )
                  (  0.0000000  0.0000000 -1.0000000 )
                  (  1.0000000  0.0000000  0.0000000 )


      isym =  9     120 deg rotation - cart. axis [1,1,1]        

 cryst.   s( 9) = (     0          0         -1      )
                  (     0          1         -1      )
                  (     1          0         -1      )

 cart.    s( 9) = (  0.0000000  0.0000000  1.0000000 )
                  (  1.0000000  0.0000000  0.0000000 )
                  (  0.0000000  1.0000000  0.0000000 )


      isym = 10     120 deg rotation - cart. axis [-1,1,-1]      

 cryst.   s(10) = (    -1          1          0      )
                  (    -1          0          0      )
                  (    -1          0          1      )

 cart.    s(10) = (  0.0000000  0.0000000  1.0000000 )
                  ( -1.0000000  0.0000000  0.0000000 )
                  (  0.0000000 -1.0000000  0.0000000 )


      isym = 11     120 deg rotation - cart. axis [1,-1,-1]      

 cryst.   s(11) = (     0          0          1      )
                  (     1          0          0      )
                  (     0          1          0      )

 cart.    s(11) = (  0.0000000  0.0000000 -1.0000000 )
                  ( -1.0000000  0.0000000  0.0000000 )
                  (  0.0000000  1.0000000  0.0000000 )


      isym = 12     120 deg rotation - cart. axis [-1,-1,1]      

 cryst.   s(12) = (     1         -1          0      )
                  (     0         -1          1      )
                  (     0         -1          0      )

 cart.    s(12) = (  0.0000000  0.0000000 -1.0000000 )
                  (  1.0000000  0.0000000  0.0000000 )
                  (  0.0000000 -1.0000000  0.0000000 )


      isym = 13     inv. 180 deg rotation - cart. axis [1,1,0]   

 cryst.   s(13) = (     0          1          0      )
                  (     1          0          0      )
                  (     0          0          1      )

 cart.    s(13) = (  0.0000000 -1.0000000  0.0000000 )
                  ( -1.0000000  0.0000000  0.0000000 )
                  (  0.0000000  0.0000000  1.0000000 )


      isym = 14     inv. 180 deg rotation - cart. axis [1,-1,0]  

 cryst.   s(14) = (     1          0         -1      )
                  (     0          1         -1      )
                  (     0          0         -1      )

 cart.    s(14) = (  0.0000000  1.0000000  0.0000000 )
                  (  1.0000000  0.0000000  0.0000000 )
                  (  0.0000000  0.0000000  1.0000000 )


      isym = 15     inv.  90 deg rotation - cart. axis [0,0,-1]  

 cryst.   s(15) = (     0         -1          0      )
                  (     0         -1          1      )
                  (     1         -1          0      )

 cart.    s(15) = (  0.0000000 -1.0000000  0.0000000 )
                  (  1.0000000  0.0000000  0.0000000 )
                  (  0.0000000  0.0000000 -1.0000000 )


      isym = 16     inv.  90 deg rotation - cart. axis [0,0,1]   

 cryst.   s(16) = (    -1          0          1      )
                  (    -1          0          0      )
                  (    -1          1          0      )

 cart.    s(16) = (  0.0000000  1.0000000  0.0000000 )
                  ( -1.0000000  0.0000000  0.0000000 )
                  (  0.0000000  0.0000000 -1.0000000 )


      isym = 17     inv. 180 deg rotation - cart. axis [1,0,1]   

 cryst.   s(17) = (     1          0          0      )
                  (     0          0          1      )
                  (     0          1          0      )

 cart.    s(17) = (  0.0000000  0.0000000 -1.0000000 )
                  (  0.0000000  1.0000000  0.0000000 )
                  ( -1.0000000  0.0000000  0.0000000 )


      isym = 18     inv. 180 deg rotation - cart. axis [-1,0,1]  

 cryst.   s(18) = (    -1          0          0      )
                  (    -1          1          0      )
                  (    -1          0          1      )

 cart.    s(18) = (  0.0000000  0.0000000  1.0000000 )
                  (  0.0000000  1.0000000  0.0000000 )
                  (  1.0000000  0.0000000  0.0000000 )


      isym = 19     inv.  90 deg rotation - cart. axis [0,1,0]   

 cryst.   s(19) = (     0         -1          1      )
                  (     1         -1          0      )
                  (     0         -1          0      )

 cart.    s(19) = (  0.0000000  0.0000000 -1.0000000 )
                  (  0.0000000 -1.0000000  0.0000000 )
                  (  1.0000000  0.0000000  0.0000000 )


      isym = 20     inv.  90 deg rotation - cart. axis [0,-1,0]  

 cryst.   s(20) = (     0          1         -1      )
                  (     0          0         -1      )
                  (     1          0         -1      )

 cart.    s(20) = (  0.0000000  0.0000000  1.0000000 )
                  (  0.0000000 -1.0000000  0.0000000 )
                  ( -1.0000000  0.0000000  0.0000000 )


      isym = 21     inv. 180 deg rotation - cart. axis [0,1,1]   

 cryst.   s(21) = (     1         -1          0      )
                  (     0         -1          0      )
                  (     0         -1          1      )

 cart.    s(21) = (  1.0000000  0.0000000  0.0000000 )
                  (  0.0000000  0.0000000 -1.0000000 )
                  (  0.0000000 -1.0000000  0.0000000 )


      isym = 22     inv. 180 deg rotation - cart. axis [0,1,-1]  

 cryst.   s(22) = (     0          0          1      )
                  (     0          1          0      )
                  (     1          0          0      )

 cart.    s(22) = (  1.0000000  0.0000000  0.0000000 )
                  (  0.0000000  0.0000000  1.0000000 )
                  (  0.0000000  1.0000000  0.0000000 )


      isym = 23     inv.  90 deg rotation - cart. axis [-1,0,0]  

 cryst.   s(23) = (     0          0         -1      )
                  (     1          0         -1      )
                  (     0          1         -1      )

 cart.    s(23) = ( -1.0000000  0.0000000  0.0000000 )
                  (  0.0000000  0.0000000 -1.0000000 )
                  (  0.0000000  1.0000000  0.0000000 )


      isym = 24     inv.  90 deg rotation - cart. axis [1,0,0]   

 cryst.   s(24) = (    -1          1          0      )
                  (    -1          0          1      )
                  (    -1          0          0      )

 cart.    s(24) = ( -1.0000000  0.0000000  0.0000000 )
                  (  0.0000000  0.0000000  1.0000000 )
                  (  0.0000000 -1.0000000  0.0000000 )


     point group T_d (-43m) 
     there are  5 classes
     the character table:

       E     8C3   3C2   6S4   6s_d 
A_1    1.00  1.00  1.00  1.00  1.00
A_2    1.00  1.00  1.00 -1.00 -1.00
E      2.00 -1.00  2.00  0.00  0.00
T_1    3.00  0.00 -1.00  1.00 -1.00
T_2    3.00  0.00 -1.00 -1.00  1.00

     the symmetry operations in each class and the name of the first element:

     E        1
          identity                                               
     8C3      5    7    8    6   12    9   10   11
          120 deg rotation - cart. axis [-1,-1,-1]               
     3C2      2    3    4
          180 deg rotation - cart. axis [0,0,1]                  
     6S4     15   16   20   19   23   24
          inv.  90 deg rotation - cart. axis [0,0,-1]            
     6s_d    13   14   17   18   21   22
          inv. 180 deg rotation - cart. axis [1,1,0]             

   Cartesian axes

     site n.     atom                  positions (alat units)
         1           Si  tau(   1) = (   0.0000000   0.0000000   0.0000000  )
         2           Si  tau(   2) = (   0.2500000   0.2500000   0.2500000  )

   Crystallographic axes

     site n.     atom                  positions (cryst. coord.)
         1           Si  tau(   1) = (  0.0000000  0.0000000  0.0000000  )
         2           Si  tau(   2) = ( -0.2500000  0.7500000 -0.2500000  )

     number of k points=  2769
                       cart. coord. in units 2pi/alat
        k(    1) = (   0.0000000   0.0000000   0.0000000), wk =   0.0000181
        k(    2) = (  -0.0208333   0.0208333  -0.0208333), wk =   0.0001447
        k(    3) = (  -0.0416667   0.0416667  -0.0416667), wk =   0.0001447
        k(    4) = (  -0.0625000   0.0625000  -0.0625000), wk =   0.0001447
        k(    5) = (  -0.0833333   0.0833333  -0.0833333), wk =   0.0001447
        k(    6) = (  -0.1041667   0.1041667  -0.1041667), wk =   0.0001447
        k(    7) = (  -0.1250000   0.1250000  -0.1250000), wk =   0.0001447
        k(    8) = (  -0.1458333   0.1458333  -0.1458333), wk =   0.0001447
        k(    9) = (  -0.1666667   0.1666667  -0.1666667), wk =   0.0001447
        k(   10) = (  -0.1875000   0.1875000  -0.1875000), wk =   0.0001447
        k(   11) = (  -0.2083333   0.2083333  -0.2083333), wk =   0.0001447
        k(   12) = (  -0.2291667   0.2291667  -0.2291667), wk =   0.0001447
        k(   13) = (  -0.2500000   0.2500000  -0.2500000), wk =   0.0001447
        k(   14) = (  -0.2708333   0.2708333  -0.2708333), wk =   0.0001447
        k(   15) = (  -0.2916667   0.2916667  -0.2916667), wk =   0.0001447
        k(   16) = (  -0.3125000   0.3125000  -0.3125000), wk =   0.0001447
        k(   17) = (  -0.3333333   0.3333333  -0.3333333), wk =   0.0001447
        k(   18) = (  -0.3541667   0.3541667  -0.3541667), wk =   0.0001447
        k(   19) = (  -0.3750000   0.3750000  -0.3750000), wk =   0.0001447
        k(   20) = (  -0.3958333   0.3958333  -0.3958333), wk =   0.0001447
        k(   21) = (  -0.4166667   0.4166667  -0.4166667), wk =   0.0001447
        k(   22) = (  -0.4375000   0.4375000  -0.4375000), wk =   0.0001447
        k(   23) = (  -0.4583333   0.4583333  -0.4583333), wk =   0.0001447
        k(   24) = (  -0.4791667   0.4791667  -0.4791667), wk =   0.0001447
        k(   25) = (   0.5000000  -0.5000000   0.5000000), wk =   0.0000723
        k(   26) = (   0.0000000   0.0416667   0.0000000), wk =   0.0001085
        k(   27) = (  -0.0208333   0.0625000  -0.0208333), wk =   0.0004340
        k(   28) = (  -0.0416667   0.0833333  -0.0416667), wk =   0.0004340
        k(   29) = (  -0.0625000   0.1041667  -0.0625000), wk =   0.0004340
        k(   30) = (  -0.0833333   0.1250000  -0.0833333), wk =   0.0004340
        k(   31) = (  -0.1041667   0.1458333  -0.1041667), wk =   0.0004340
        k(   32) = (  -0.1250000   0.1666667  -0.1250000), wk =   0.0004340
        k(   33) = (  -0.1458333   0.1875000  -0.1458333), wk =   0.0004340
        k(   34) = (  -0.1666667   0.2083333  -0.1666667), wk =   0.0004340
        k(   35) = (  -0.1875000   0.2291667  -0.1875000), wk =   0.0004340
        k(   36) = (  -0.2083333   0.2500000  -0.2083333), wk =   0.0004340
        k(   37) = (  -0.2291667   0.2708333  -0.2291667), wk =   0.0004340
        k(   38) = (  -0.2500000   0.2916667  -0.2500000), wk =   0.0004340
        k(   39) = (  -0.2708333   0.3125000  -0.2708333), wk =   0.0004340
        k(   40) = (  -0.2916667   0.3333333  -0.2916667), wk =   0.0004340
        k(   41) = (  -0.3125000   0.3541667  -0.3125000), wk =   0.0004340
        k(   42) = (  -0.3333333   0.3750000  -0.3333333), wk =   0.0004340
        k(   43) = (  -0.3541667   0.3958333  -0.3541667), wk =   0.0004340
        k(   44) = (  -0.3750000   0.4166667  -0.3750000), wk =   0.0004340
        k(   45) = (  -0.3958333   0.4375000  -0.3958333), wk =   0.0004340
        k(   46) = (  -0.4166667   0.4583333  -0.4166667), wk =   0.0004340
        k(   47) = (  -0.4375000   0.4791667  -0.4375000), wk =   0.0004340
        k(   48) = (  -0.4583333   0.5000000  -0.4583333), wk =   0.0004340
        k(   49) = (   0.5208333  -0.4791667   0.5208333), wk =   0.0004340
        k(   50) = (   0.5000000  -0.4583333   0.5000000), wk =   0.0004340
        k(   51) = (   0.4791667  -0.4375000   0.4791667), wk =   0.0004340
        k(   52) = (   0.4583333  -0.4166667   0.4583333), wk =   0.0004340
        k(   53) = (   0.4375000  -0.3958333   0.4375000), wk =   0.0004340
        k(   54) = (   0.4166667  -0.3750000   0.4166667), wk =   0.0004340
        k(   55) = (   0.3958333  -0.3541667   0.3958333), wk =   0.0004340
        k(   56) = (   0.3750000  -0.3333333   0.3750000), wk =   0.0004340
        k(   57) = (   0.3541667  -0.3125000   0.3541667), wk =   0.0004340
        k(   58) = (   0.3333333  -0.2916667   0.3333333), wk =   0.0004340
        k(   59) = (   0.3125000  -0.2708333   0.3125000), wk =   0.0004340
        k(   60) = (   0.2916667  -0.2500000   0.2916667), wk =   0.0004340
        k(   61) = (   0.2708333  -0.2291667   0.2708333), wk =   0.0004340
        k(   62) = (   0.2500000  -0.2083333   0.2500000), wk =   0.0004340
        k(   63) = (   0.2291667  -0.1875000   0.2291667), wk =   0.0004340
        k(   64) = (   0.2083333  -0.1666667   0.2083333), wk =   0.0004340
        k(   65) = (   0.1875000  -0.1458333   0.1875000), wk =   0.0004340
        k(   66) = (   0.1666667  -0.1250000   0.1666667), wk =   0.0004340
        k(   67) = (   0.1458333  -0.1041667   0.1458333), wk =   0.0004340
        k(   68) = (   0.1250000  -0.0833333   0.1250000), wk =   0.0004340
        k(   69) = (   0.1041667  -0.0625000   0.1041667), wk =   0.0004340
        k(   70) = (   0.0833333  -0.0416667   0.0833333), wk =   0.0004340
        k(   71) = (   0.0625000  -0.0208333   0.0625000), wk =   0.0004340
        k(   72) = (   0.0416667  -0.0000000   0.0416667), wk =   0.0002170
        k(   73) = (   0.0000000   0.0833333   0.0000000), wk =   0.0001085
        k(   74) = (  -0.0208333   0.1041667  -0.0208333), wk =   0.0004340
        k(   75) = (  -0.0416667   0.1250000  -0.0416667), wk =   0.0004340
        k(   76) = (  -0.0625000   0.1458333  -0.0625000), wk =   0.0004340
        k(   77) = (  -0.0833333   0.1666667  -0.0833333), wk =   0.0004340
        k(   78) = (  -0.1041667   0.1875000  -0.1041667), wk =   0.0004340
        k(   79) = (  -0.1250000   0.2083333  -0.1250000), wk =   0.0004340
        k(   80) = (  -0.1458333   0.2291667  -0.1458333), wk =   0.0004340
        k(   81) = (  -0.1666667   0.2500000  -0.1666667), wk =   0.0004340
        k(   82) = (  -0.1875000   0.2708333  -0.1875000), wk =   0.0004340
        k(   83) = (  -0.2083333   0.2916667  -0.2083333), wk =   0.0004340
        k(   84) = (  -0.2291667   0.3125000  -0.2291667), wk =   0.0004340
        k(   85) = (  -0.2500000   0.3333333  -0.2500000), wk =   0.0004340
        k(   86) = (  -0.2708333   0.3541667  -0.2708333), wk =   0.0004340
        k(   87) = (  -0.2916667   0.3750000  -0.2916667), wk =   0.0004340
        k(   88) = (  -0.3125000   0.3958333  -0.3125000), wk =   0.0004340
        k(   89) = (  -0.3333333   0.4166667  -0.3333333), wk =   0.0004340
        k(   90) = (  -0.3541667   0.4375000  -0.3541667), wk =   0.0004340
        k(   91) = (  -0.3750000   0.4583333  -0.3750000), wk =   0.0004340
        k(   92) = (  -0.3958333   0.4791667  -0.3958333), wk =   0.0004340
        k(   93) = (  -0.4166667   0.5000000  -0.4166667), wk =   0.0004340
        k(   94) = (  -0.4375000   0.5208333  -0.4375000), wk =   0.0004340
        k(   95) = (   0.5416667  -0.4583333   0.5416667), wk =   0.0004340
        k(   96) = (   0.5208333  -0.4375000   0.5208333), wk =   0.0004340
        k(   97) = (   0.5000000  -0.4166667   0.5000000), wk =   0.0004340
        k(   98) = (   0.4791667  -0.3958333   0.4791667), wk =   0.0004340
        k(   99) = (   0.4583333  -0.3750000   0.4583333), wk =   0.0004340
        k(  100) = (   0.4375000  -0.3541667   0.4375000), wk =   0.0004340
        k(  101) = (   0.4166667  -0.3333333   0.4166667), wk =   0.0004340
        k(  102) = (   0.3958333  -0.3125000   0.3958333), wk =   0.0004340
        k(  103) = (   0.3750000  -0.2916667   0.3750000), wk =   0.0004340
        k(  104) = (   0.3541667  -0.2708333   0.3541667), wk =   0.0004340
        k(  105) = (   0.3333333  -0.2500000   0.3333333), wk =   0.0004340
        k(  106) = (   0.3125000  -0.2291667   0.3125000), wk =   0.0004340
        k(  107) = (   0.2916667  -0.2083333   0.2916667), wk =   0.0004340
        k(  108) = (   0.2708333  -0.1875000   0.2708333), wk =   0.0004340
        k(  109) = (   0.2500000  -0.1666667   0.2500000), wk =   0.0004340
        k(  110) = (   0.2291667  -0.1458333   0.2291667), wk =   0.0004340
        k(  111) = (   0.2083333  -0.1250000   0.2083333), wk =   0.0004340
        k(  112) = (   0.1875000  -0.1041667   0.1875000), wk =   0.0004340
        k(  113) = (   0.1666667  -0.0833333   0.1666667), wk =   0.0004340
        k(  114) = (   0.1458333  -0.0625000   0.1458333), wk =   0.0004340
        k(  115) = (   0.1250000  -0.0416667   0.1250000), wk =   0.0004340
        k(  116) = (   0.1041667  -0.0208333   0.1041667), wk =   0.0004340
        k(  117) = (   0.0833333   0.0000000   0.0833333), wk =   0.0002170
        k(  118) = (   0.0000000   0.1250000   0.0000000), wk =   0.0001085
        k(  119) = (  -0.0208333   0.1458333  -0.0208333), wk =   0.0004340
        k(  120) = (  -0.0416667   0.1666667  -0.0416667), wk =   0.0004340
        k(  121) = (  -0.0625000   0.1875000  -0.0625000), wk =   0.0004340
        k(  122) = (  -0.0833333   0.2083333  -0.0833333), wk =   0.0004340
        k(  123) = (  -0.1041667   0.2291667  -0.1041667), wk =   0.0004340
        k(  124) = (  -0.1250000   0.2500000  -0.1250000), wk =   0.0004340
        k(  125) = (  -0.1458333   0.2708333  -0.1458333), wk =   0.0004340
        k(  126) = (  -0.1666667   0.2916667  -0.1666667), wk =   0.0004340
        k(  127) = (  -0.1875000   0.3125000  -0.1875000), wk =   0.0004340
        k(  128) = (  -0.2083333   0.3333333  -0.2083333), wk =   0.0004340
        k(  129) = (  -0.2291667   0.3541667  -0.2291667), wk =   0.0004340
        k(  130) = (  -0.2500000   0.3750000  -0.2500000), wk =   0.0004340
        k(  131) = (  -0.2708333   0.3958333  -0.2708333), wk =   0.0004340
        k(  132) = (  -0.2916667   0.4166667  -0.2916667), wk =   0.0004340
        k(  133) = (  -0.3125000   0.4375000  -0.3125000), wk =   0.0004340
        k(  134) = (  -0.3333333   0.4583333  -0.3333333), wk =   0.0004340
        k(  135) = (  -0.3541667   0.4791667  -0.3541667), wk =   0.0004340
        k(  136) = (  -0.3750000   0.5000000  -0.3750000), wk =   0.0004340
        k(  137) = (  -0.3958333   0.5208333  -0.3958333), wk =   0.0004340
        k(  138) = (  -0.4166667   0.5416667  -0.4166667), wk =   0.0004340
        k(  139) = (   0.5625000  -0.4375000   0.5625000), wk =   0.0004340
        k(  140) = (   0.5416667  -0.4166667   0.5416667), wk =   0.0004340
        k(  141) = (   0.5208333  -0.3958333   0.5208333), wk =   0.0004340
        k(  142) = (   0.5000000  -0.3750000   0.5000000), wk =   0.0004340
        k(  143) = (   0.4791667  -0.3541667   0.4791667), wk =   0.0004340
        k(  144) = (   0.4583333  -0.3333333   0.4583333), wk =   0.0004340
        k(  145) = (   0.4375000  -0.3125000   0.4375000), wk =   0.0004340
        k(  146) = (   0.4166667  -0.2916667   0.4166667), wk =   0.0004340
        k(  147) = (   0.3958333  -0.2708333   0.3958333), wk =   0.0004340
        k(  148) = (   0.3750000  -0.2500000   0.3750000), wk =   0.0004340
        k(  149) = (   0.3541667  -0.2291667   0.3541667), wk =   0.0004340
        k(  150) = (   0.3333333  -0.2083333   0.3333333), wk =   0.0004340
        k(  151) = (   0.3125000  -0.1875000   0.3125000), wk =   0.0004340
        k(  152) = (   0.2916667  -0.1666667   0.2916667), wk =   0.0004340
        k(  153) = (   0.2708333  -0.1458333   0.2708333), wk =   0.0004340
        k(  154) = (   0.2500000  -0.1250000   0.2500000), wk =   0.0004340
        k(  155) = (   0.2291667  -0.1041667   0.2291667), wk =   0.0004340
        k(  156) = (   0.2083333  -0.0833333   0.2083333), wk =   0.0004340
        k(  157) = (   0.1875000  -0.0625000   0.1875000), wk =   0.0004340
        k(  158) = (   0.1666667  -0.0416667   0.1666667), wk =   0.0004340
        k(  159) = (   0.1458333  -0.0208333   0.1458333), wk =   0.0004340
        k(  160) = (   0.1250000   0.0000000   0.1250000), wk =   0.0002170
        k(  161) = (   0.0000000   0.1666667   0.0000000), wk =   0.0001085
        k(  162) = (  -0.0208333   0.1875000  -0.0208333), wk =   0.0004340
        k(  163) = (  -0.0416667   0.2083333  -0.0416667), wk =   0.0004340
        k(  164) = (  -0.0625000   0.2291667  -0.0625000), wk =   0.0004340
        k(  165) = (  -0.0833333   0.2500000  -0.0833333), wk =   0.0004340
        k(  166) = (  -0.1041667   0.2708333  -0.1041667), wk =   0.0004340
        k(  167) = (  -0.1250000   0.2916667  -0.1250000), wk =   0.0004340
        k(  168) = (  -0.1458333   0.3125000  -0.1458333), wk =   0.0004340
        k(  169) = (  -0.1666667   0.3333333  -0.1666667), wk =   0.0004340
        k(  170) = (  -0.1875000   0.3541667  -0.1875000), wk =   0.0004340
        k(  171) = (  -0.2083333   0.3750000  -0.2083333), wk =   0.0004340
        k(  172) = (  -0.2291667   0.3958333  -0.2291667), wk =   0.0004340
        k(  173) = (  -0.2500000   0.4166667  -0.2500000), wk =   0.0004340
        k(  174) = (  -0.2708333   0.4375000  -0.2708333), wk =   0.0004340
        k(  175) = (  -0.2916667   0.4583333  -0.2916667), wk =   0.0004340
        k(  176) = (  -0.3125000   0.4791667  -0.3125000), wk =   0.0004340
        k(  177) = (  -0.3333333   0.5000000  -0.3333333), wk =   0.0004340
        k(  178) = (  -0.3541667   0.5208333  -0.3541667), wk =   0.0004340
        k(  179) = (  -0.3750000   0.5416667  -0.3750000), wk =   0.0004340
        k(  180) = (  -0.3958333   0.5625000  -0.3958333), wk =   0.0004340
        k(  181) = (   0.5833333  -0.4166667   0.5833333), wk =   0.0004340
        k(  182) = (   0.5625000  -0.3958333   0.5625000), wk =   0.0004340
        k(  183) = (   0.5416667  -0.3750000   0.5416667), wk =   0.0004340
        k(  184) = (   0.5208333  -0.3541667   0.5208333), wk =   0.0004340
        k(  185) = (   0.5000000  -0.3333333   0.5000000), wk =   0.0004340
        k(  186) = (   0.4791667  -0.3125000   0.4791667), wk =   0.0004340
        k(  187) = (   0.4583333  -0.2916667   0.4583333), wk =   0.0004340
        k(  188) = (   0.4375000  -0.2708333   0.4375000), wk =   0.0004340
        k(  189) = (   0.4166667  -0.2500000   0.4166667), wk =   0.0004340
        k(  190) = (   0.3958333  -0.2291667   0.3958333), wk =   0.0004340
        k(  191) = (   0.3750000  -0.2083333   0.3750000), wk =   0.0004340
        k(  192) = (   0.3541667  -0.1875000   0.3541667), wk =   0.0004340
        k(  193) = (   0.3333333  -0.1666667   0.3333333), wk =   0.0004340
        k(  194) = (   0.3125000  -0.1458333   0.3125000), wk =   0.0004340
        k(  195) = (   0.2916667  -0.1250000   0.2916667), wk =   0.0004340
        k(  196) = (   0.2708333  -0.1041667   0.2708333), wk =   0.0004340
        k(  197) = (   0.2500000  -0.0833333   0.2500000), wk =   0.0004340
        k(  198) = (   0.2291667  -0.0625000   0.2291667), wk =   0.0004340
        k(  199) = (   0.2083333  -0.0416667   0.2083333), wk =   0.0004340
        k(  200) = (   0.1875000  -0.0208333   0.1875000), wk =   0.0004340
        k(  201) = (   0.1666667  -0.0000000   0.1666667), wk =   0.0002170
        k(  202) = (   0.0000000   0.2083333   0.0000000), wk =   0.0001085
        k(  203) = (  -0.0208333   0.2291667  -0.0208333), wk =   0.0004340
        k(  204) = (  -0.0416667   0.2500000  -0.0416667), wk =   0.0004340
        k(  205) = (  -0.0625000   0.2708333  -0.0625000), wk =   0.0004340
        k(  206) = (  -0.0833333   0.2916667  -0.0833333), wk =   0.0004340
        k(  207) = (  -0.1041667   0.3125000  -0.1041667), wk =   0.0004340
        k(  208) = (  -0.1250000   0.3333333  -0.1250000), wk =   0.0004340
        k(  209) = (  -0.1458333   0.3541667  -0.1458333), wk =   0.0004340
        k(  210) = (  -0.1666667   0.3750000  -0.1666667), wk =   0.0004340
        k(  211) = (  -0.1875000   0.3958333  -0.1875000), wk =   0.0004340
        k(  212) = (  -0.2083333   0.4166667  -0.2083333), wk =   0.0004340
        k(  213) = (  -0.2291667   0.4375000  -0.2291667), wk =   0.0004340
        k(  214) = (  -0.2500000   0.4583333  -0.2500000), wk =   0.0004340
        k(  215) = (  -0.2708333   0.4791667  -0.2708333), wk =   0.0004340
        k(  216) = (  -0.2916667   0.5000000  -0.2916667), wk =   0.0004340
        k(  217) = (  -0.3125000   0.5208333  -0.3125000), wk =   0.0004340
        k(  218) = (  -0.3333333   0.5416667  -0.3333333), wk =   0.0004340
        k(  219) = (  -0.3541667   0.5625000  -0.3541667), wk =   0.0004340
        k(  220) = (  -0.3750000   0.5833333  -0.3750000), wk =   0.0004340
        k(  221) = (   0.6041667  -0.3958333   0.6041667), wk =   0.0004340
        k(  222) = (   0.5833333  -0.3750000   0.5833333), wk =   0.0004340
        k(  223) = (   0.5625000  -0.3541667   0.5625000), wk =   0.0004340
        k(  224) = (   0.5416667  -0.3333333   0.5416667), wk =   0.0004340
        k(  225) = (   0.5208333  -0.3125000   0.5208333), wk =   0.0004340
        k(  226) = (   0.5000000  -0.2916667   0.5000000), wk =   0.0004340
        k(  227) = (   0.4791667  -0.2708333   0.4791667), wk =   0.0004340
        k(  228) = (   0.4583333  -0.2500000   0.4583333), wk =   0.0004340
        k(  229) = (   0.4375000  -0.2291667   0.4375000), wk =   0.0004340
        k(  230) = (   0.4166667  -0.2083333   0.4166667), wk =   0.0004340
        k(  231) = (   0.3958333  -0.1875000   0.3958333), wk =   0.0004340
        k(  232) = (   0.3750000  -0.1666667   0.3750000), wk =   0.0004340
        k(  233) = (   0.3541667  -0.1458333   0.3541667), wk =   0.0004340
        k(  234) = (   0.3333333  -0.1250000   0.3333333), wk =   0.0004340
        k(  235) = (   0.3125000  -0.1041667   0.3125000), wk =   0.0004340
        k(  236) = (   0.2916667  -0.0833333   0.2916667), wk =   0.0004340
        k(  237) = (   0.2708333  -0.0625000   0.2708333), wk =   0.0004340
        k(  238) = (   0.2500000  -0.0416667   0.2500000), wk =   0.0004340
        k(  239) = (   0.2291667  -0.0208333   0.2291667), wk =   0.0004340
        k(  240) = (   0.2083333   0.0000000   0.2083333), wk =   0.0002170
        k(  241) = (   0.0000000   0.2500000   0.0000000), wk =   0.0001085
        k(  242) = (  -0.0208333   0.2708333  -0.0208333), wk =   0.0004340
        k(  243) = (  -0.0416667   0.2916667  -0.0416667), wk =   0.0004340
        k(  244) = (  -0.0625000   0.3125000  -0.0625000), wk =   0.0004340
        k(  245) = (  -0.0833333   0.3333333  -0.0833333), wk =   0.0004340
        k(  246) = (  -0.1041667   0.3541667  -0.1041667), wk =   0.0004340
        k(  247) = (  -0.1250000   0.3750000  -0.1250000), wk =   0.0004340
        k(  248) = (  -0.1458333   0.3958333  -0.1458333), wk =   0.0004340
        k(  249) = (  -0.1666667   0.4166667  -0.1666667), wk =   0.0004340
        k(  250) = (  -0.1875000   0.4375000  -0.1875000), wk =   0.0004340
        k(  251) = (  -0.2083333   0.4583333  -0.2083333), wk =   0.0004340
        k(  252) = (  -0.2291667   0.4791667  -0.2291667), wk =   0.0004340
        k(  253) = (  -0.2500000   0.5000000  -0.2500000), wk =   0.0004340
        k(  254) = (  -0.2708333   0.5208333  -0.2708333), wk =   0.0004340
        k(  255) = (  -0.2916667   0.5416667  -0.2916667), wk =   0.0004340
        k(  256) = (  -0.3125000   0.5625000  -0.3125000), wk =   0.0004340
        k(  257) = (  -0.3333333   0.5833333  -0.3333333), wk =   0.0004340
        k(  258) = (  -0.3541667   0.6041667  -0.3541667), wk =   0.0004340
        k(  259) = (   0.6250000  -0.3750000   0.6250000), wk =   0.0004340
        k(  260) = (   0.6041667  -0.3541667   0.6041667), wk =   0.0004340
        k(  261) = (   0.5833333  -0.3333333   0.5833333), wk =   0.0004340
        k(  262) = (   0.5625000  -0.3125000   0.5625000), wk =   0.0004340
        k(  263) = (   0.5416667  -0.2916667   0.5416667), wk =   0.0004340
        k(  264) = (   0.5208333  -0.2708333   0.5208333), wk =   0.0004340
        k(  265) = (   0.5000000  -0.2500000   0.5000000), wk =   0.0004340
        k(  266) = (   0.4791667  -0.2291667   0.4791667), wk =   0.0004340
        k(  267) = (   0.4583333  -0.2083333   0.4583333), wk =   0.0004340
        k(  268) = (   0.4375000  -0.1875000   0.4375000), wk =   0.0004340
        k(  269) = (   0.4166667  -0.1666667   0.4166667), wk =   0.0004340
        k(  270) = (   0.3958333  -0.1458333   0.3958333), wk =   0.0004340
        k(  271) = (   0.3750000  -0.1250000   0.3750000), wk =   0.0004340
        k(  272) = (   0.3541667  -0.1041667   0.3541667), wk =   0.0004340
        k(  273) = (   0.3333333  -0.0833333   0.3333333), wk =   0.0004340
        k(  274) = (   0.3125000  -0.0625000   0.3125000), wk =   0.0004340
        k(  275) = (   0.2916667  -0.0416667   0.2916667), wk =   0.0004340
        k(  276) = (   0.2708333  -0.0208333   0.2708333), wk =   0.0004340
        k(  277) = (   0.2500000   0.0000000   0.2500000), wk =   0.0002170
        k(  278) = (   0.0000000   0.2916667   0.0000000), wk =   0.0001085
        k(  279) = (  -0.0208333   0.3125000  -0.0208333), wk =   0.0004340
        k(  280) = (  -0.0416667   0.3333333  -0.0416667), wk =   0.0004340
        k(  281) = (  -0.0625000   0.3541667  -0.0625000), wk =   0.0004340
        k(  282) = (  -0.0833333   0.3750000  -0.0833333), wk =   0.0004340
        k(  283) = (  -0.1041667   0.3958333  -0.1041667), wk =   0.0004340
        k(  284) = (  -0.1250000   0.4166667  -0.1250000), wk =   0.0004340
        k(  285) = (  -0.1458333   0.4375000  -0.1458333), wk =   0.0004340
        k(  286) = (  -0.1666667   0.4583333  -0.1666667), wk =   0.0004340
        k(  287) = (  -0.1875000   0.4791667  -0.1875000), wk =   0.0004340
        k(  288) = (  -0.2083333   0.5000000  -0.2083333), wk =   0.0004340
        k(  289) = (  -0.2291667   0.5208333  -0.2291667), wk =   0.0004340
        k(  290) = (  -0.2500000   0.5416667  -0.2500000), wk =   0.0004340
        k(  291) = (  -0.2708333   0.5625000  -0.2708333), wk =   0.0004340
        k(  292) = (  -0.2916667   0.5833333  -0.2916667), wk =   0.0004340
        k(  293) = (  -0.3125000   0.6041667  -0.3125000), wk =   0.0004340
        k(  294) = (  -0.3333333   0.6250000  -0.3333333), wk =   0.0004340
        k(  295) = (   0.6458333  -0.3541667   0.6458333), wk =   0.0004340
        k(  296) = (   0.6250000  -0.3333333   0.6250000), wk =   0.0004340
        k(  297) = (   0.6041667  -0.3125000   0.6041667), wk =   0.0004340
        k(  298) = (   0.5833333  -0.2916667   0.5833333), wk =   0.0004340
        k(  299) = (   0.5625000  -0.2708333   0.5625000), wk =   0.0004340
        k(  300) = (   0.5416667  -0.2500000   0.5416667), wk =   0.0004340
        k(  301) = (   0.5208333  -0.2291667   0.5208333), wk =   0.0004340
        k(  302) = (   0.5000000  -0.2083333   0.5000000), wk =   0.0004340
        k(  303) = (   0.4791667  -0.1875000   0.4791667), wk =   0.0004340
        k(  304) = (   0.4583333  -0.1666667   0.4583333), wk =   0.0004340
        k(  305) = (   0.4375000  -0.1458333   0.4375000), wk =   0.0004340
        k(  306) = (   0.4166667  -0.1250000   0.4166667), wk =   0.0004340
        k(  307) = (   0.3958333  -0.1041667   0.3958333), wk =   0.0004340
        k(  308) = (   0.3750000  -0.0833333   0.3750000), wk =   0.0004340
        k(  309) = (   0.3541667  -0.0625000   0.3541667), wk =   0.0004340
        k(  310) = (   0.3333333  -0.0416667   0.3333333), wk =   0.0004340
        k(  311) = (   0.3125000  -0.0208333   0.3125000), wk =   0.0004340
        k(  312) = (   0.2916667  -0.0000000   0.2916667), wk =   0.0002170
        k(  313) = (   0.0000000   0.3333333   0.0000000), wk =   0.0001085
        k(  314) = (  -0.0208333   0.3541667  -0.0208333), wk =   0.0004340
        k(  315) = (  -0.0416667   0.3750000  -0.0416667), wk =   0.0004340
        k(  316) = (  -0.0625000   0.3958333  -0.0625000), wk =   0.0004340
        k(  317) = (  -0.0833333   0.4166667  -0.0833333), wk =   0.0004340
        k(  318) = (  -0.1041667   0.4375000  -0.1041667), wk =   0.0004340
        k(  319) = (  -0.1250000   0.4583333  -0.1250000), wk =   0.0004340
        k(  320) = (  -0.1458333   0.4791667  -0.1458333), wk =   0.0004340
        k(  321) = (  -0.1666667   0.5000000  -0.1666667), wk =   0.0004340
        k(  322) = (  -0.1875000   0.5208333  -0.1875000), wk =   0.0004340
        k(  323) = (  -0.2083333   0.5416667  -0.2083333), wk =   0.0004340
        k(  324) = (  -0.2291667   0.5625000  -0.2291667), wk =   0.0004340
        k(  325) = (  -0.2500000   0.5833333  -0.2500000), wk =   0.0004340
        k(  326) = (  -0.2708333   0.6041667  -0.2708333), wk =   0.0004340
        k(  327) = (  -0.2916667   0.6250000  -0.2916667), wk =   0.0004340
        k(  328) = (  -0.3125000   0.6458333  -0.3125000), wk =   0.0004340
        k(  329) = (   0.6666667  -0.3333333   0.6666667), wk =   0.0004340
        k(  330) = (   0.6458333  -0.3125000   0.6458333), wk =   0.0004340
        k(  331) = (   0.6250000  -0.2916667   0.6250000), wk =   0.0004340
        k(  332) = (   0.6041667  -0.2708333   0.6041667), wk =   0.0004340
        k(  333) = (   0.5833333  -0.2500000   0.5833333), wk =   0.0004340
        k(  334) = (   0.5625000  -0.2291667   0.5625000), wk =   0.0004340
        k(  335) = (   0.5416667  -0.2083333   0.5416667), wk =   0.0004340
        k(  336) = (   0.5208333  -0.1875000   0.5208333), wk =   0.0004340
        k(  337) = (   0.5000000  -0.1666667   0.5000000), wk =   0.0004340
        k(  338) = (   0.4791667  -0.1458333   0.4791667), wk =   0.0004340
        k(  339) = (   0.4583333  -0.1250000   0.4583333), wk =   0.0004340
        k(  340) = (   0.4375000  -0.1041667   0.4375000), wk =   0.0004340
        k(  341) = (   0.4166667  -0.0833333   0.4166667), wk =   0.0004340
        k(  342) = (   0.3958333  -0.0625000   0.3958333), wk =   0.0004340
        k(  343) = (   0.3750000  -0.0416667   0.3750000), wk =   0.0004340
        k(  344) = (   0.3541667  -0.0208333   0.3541667), wk =   0.0004340
        k(  345) = (   0.3333333   0.0000000   0.3333333), wk =   0.0002170
        k(  346) = (   0.0000000   0.3750000   0.0000000), wk =   0.0001085
        k(  347) = (  -0.0208333   0.3958333  -0.0208333), wk =   0.0004340
        k(  348) = (  -0.0416667   0.4166667  -0.0416667), wk =   0.0004340
        k(  349) = (  -0.0625000   0.4375000  -0.0625000), wk =   0.0004340
        k(  350) = (  -0.0833333   0.4583333  -0.0833333), wk =   0.0004340
        k(  351) = (  -0.1041667   0.4791667  -0.1041667), wk =   0.0004340
        k(  352) = (  -0.1250000   0.5000000  -0.1250000), wk =   0.0004340
        k(  353) = (  -0.1458333   0.5208333  -0.1458333), wk =   0.0004340
        k(  354) = (  -0.1666667   0.5416667  -0.1666667), wk =   0.0004340
        k(  355) = (  -0.1875000   0.5625000  -0.1875000), wk =   0.0004340
        k(  356) = (  -0.2083333   0.5833333  -0.2083333), wk =   0.0004340
        k(  357) = (  -0.2291667   0.6041667  -0.2291667), wk =   0.0004340
        k(  358) = (  -0.2500000   0.6250000  -0.2500000), wk =   0.0004340
        k(  359) = (  -0.2708333   0.6458333  -0.2708333), wk =   0.0004340
        k(  360) = (  -0.2916667   0.6666667  -0.2916667), wk =   0.0004340
        k(  361) = (   0.6875000  -0.3125000   0.6875000), wk =   0.0004340
        k(  362) = (   0.6666667  -0.2916667   0.6666667), wk =   0.0004340
        k(  363) = (   0.6458333  -0.2708333   0.6458333), wk =   0.0004340
        k(  364) = (   0.6250000  -0.2500000   0.6250000), wk =   0.0004340
        k(  365) = (   0.6041667  -0.2291667   0.6041667), wk =   0.0004340
        k(  366) = (   0.5833333  -0.2083333   0.5833333), wk =   0.0004340
        k(  367) = (   0.5625000  -0.1875000   0.5625000), wk =   0.0004340
        k(  368) = (   0.5416667  -0.1666667   0.5416667), wk =   0.0004340
        k(  369) = (   0.5208333  -0.1458333   0.5208333), wk =   0.0004340
        k(  370) = (   0.5000000  -0.1250000   0.5000000), wk =   0.0004340
        k(  371) = (   0.4791667  -0.1041667   0.4791667), wk =   0.0004340
        k(  372) = (   0.4583333  -0.0833333   0.4583333), wk =   0.0004340
        k(  373) = (   0.4375000  -0.0625000   0.4375000), wk =   0.0004340
        k(  374) = (   0.4166667  -0.0416667   0.4166667), wk =   0.0004340
        k(  375) = (   0.3958333  -0.0208333   0.3958333), wk =   0.0004340
        k(  376) = (   0.3750000   0.0000000   0.3750000), wk =   0.0002170
        k(  377) = (   0.0000000   0.4166667   0.0000000), wk =   0.0001085
        k(  378) = (  -0.0208333   0.4375000  -0.0208333), wk =   0.0004340
        k(  379) = (  -0.0416667   0.4583333  -0.0416667), wk =   0.0004340
        k(  380) = (  -0.0625000   0.4791667  -0.0625000), wk =   0.0004340
        k(  381) = (  -0.0833333   0.5000000  -0.0833333), wk =   0.0004340
        k(  382) = (  -0.1041667   0.5208333  -0.1041667), wk =   0.0004340
        k(  383) = (  -0.1250000   0.5416667  -0.1250000), wk =   0.0004340
        k(  384) = (  -0.1458333   0.5625000  -0.1458333), wk =   0.0004340
        k(  385) = (  -0.1666667   0.5833333  -0.1666667), wk =   0.0004340
        k(  386) = (  -0.1875000   0.6041667  -0.1875000), wk =   0.0004340
        k(  387) = (  -0.2083333   0.6250000  -0.2083333), wk =   0.0004340
        k(  388) = (  -0.2291667   0.6458333  -0.2291667), wk =   0.0004340
        k(  389) = (  -0.2500000   0.6666667  -0.2500000), wk =   0.0004340
        k(  390) = (  -0.2708333   0.6875000  -0.2708333), wk =   0.0004340
        k(  391) = (   0.7083333  -0.2916667   0.7083333), wk =   0.0004340
        k(  392) = (   0.6875000  -0.2708333   0.6875000), wk =   0.0004340
        k(  393) = (   0.6666667  -0.2500000   0.6666667), wk =   0.0004340
        k(  394) = (   0.6458333  -0.2291667   0.6458333), wk =   0.0004340
        k(  395) = (   0.6250000  -0.2083333   0.6250000), wk =   0.0004340
        k(  396) = (   0.6041667  -0.1875000   0.6041667), wk =   0.0004340
        k(  397) = (   0.5833333  -0.1666667   0.5833333), wk =   0.0004340
        k(  398) = (   0.5625000  -0.1458333   0.5625000), wk =   0.0004340
        k(  399) = (   0.5416667  -0.1250000   0.5416667), wk =   0.0004340
        k(  400) = (   0.5208333  -0.1041667   0.5208333), wk =   0.0004340
        k(  401) = (   0.5000000  -0.0833333   0.5000000), wk =   0.0004340
        k(  402) = (   0.4791667  -0.0625000   0.4791667), wk =   0.0004340
        k(  403) = (   0.4583333  -0.0416667   0.4583333), wk =   0.0004340
        k(  404) = (   0.4375000  -0.0208333   0.4375000), wk =   0.0004340
        k(  405) = (   0.4166667  -0.0000000   0.4166667), wk =   0.0002170
        k(  406) = (   0.0000000   0.4583333   0.0000000), wk =   0.0001085
        k(  407) = (  -0.0208333   0.4791667  -0.0208333), wk =   0.0004340
        k(  408) = (  -0.0416667   0.5000000  -0.0416667), wk =   0.0004340
        k(  409) = (  -0.0625000   0.5208333  -0.0625000), wk =   0.0004340
        k(  410) = (  -0.0833333   0.5416667  -0.0833333), wk =   0.0004340
        k(  411) = (  -0.1041667   0.5625000  -0.1041667), wk =   0.0004340
        k(  412) = (  -0.1250000   0.5833333  -0.1250000), wk =   0.0004340
        k(  413) = (  -0.1458333   0.6041667  -0.1458333), wk =   0.0004340
        k(  414) = (  -0.1666667   0.6250000  -0.1666667), wk =   0.0004340
        k(  415) = (  -0.1875000   0.6458333  -0.1875000), wk =   0.0004340
        k(  416) = (  -0.2083333   0.6666667  -0.2083333), wk =   0.0004340
        k(  417) = (  -0.2291667   0.6875000  -0.2291667), wk =   0.0004340
        k(  418) = (  -0.2500000   0.7083333  -0.2500000), wk =   0.0004340
        k(  419) = (   0.7291667  -0.2708333   0.7291667), wk =   0.0004340
        k(  420) = (   0.7083333  -0.2500000   0.7083333), wk =   0.0004340
        k(  421) = (   0.6875000  -0.2291667   0.6875000), wk =   0.0004340
        k(  422) = (   0.6666667  -0.2083333   0.6666667), wk =   0.0004340
        k(  423) = (   0.6458333  -0.1875000   0.6458333), wk =   0.0004340
        k(  424) = (   0.6250000  -0.1666667   0.6250000), wk =   0.0004340
        k(  425) = (   0.6041667  -0.1458333   0.6041667), wk =   0.0004340
        k(  426) = (   0.5833333  -0.1250000   0.5833333), wk =   0.0004340
        k(  427) = (   0.5625000  -0.1041667   0.5625000), wk =   0.0004340
        k(  428) = (   0.5416667  -0.0833333   0.5416667), wk =   0.0004340
        k(  429) = (   0.5208333  -0.0625000   0.5208333), wk =   0.0004340
        k(  430) = (   0.5000000  -0.0416667   0.5000000), wk =   0.0004340
        k(  431) = (   0.4791667  -0.0208333   0.4791667), wk =   0.0004340
        k(  432) = (   0.4583333   0.0000000   0.4583333), wk =   0.0002170
        k(  433) = (   0.0000000   0.5000000   0.0000000), wk =   0.0001085
        k(  434) = (  -0.0208333   0.5208333  -0.0208333), wk =   0.0004340
        k(  435) = (  -0.0416667   0.5416667  -0.0416667), wk =   0.0004340
        k(  436) = (  -0.0625000   0.5625000  -0.0625000), wk =   0.0004340
        k(  437) = (  -0.0833333   0.5833333  -0.0833333), wk =   0.0004340
        k(  438) = (  -0.1041667   0.6041667  -0.1041667), wk =   0.0004340
        k(  439) = (  -0.1250000   0.6250000  -0.1250000), wk =   0.0004340
        k(  440) = (  -0.1458333   0.6458333  -0.1458333), wk =   0.0004340
        k(  441) = (  -0.1666667   0.6666667  -0.1666667), wk =   0.0004340
        k(  442) = (  -0.1875000   0.6875000  -0.1875000), wk =   0.0004340
        k(  443) = (  -0.2083333   0.7083333  -0.2083333), wk =   0.0004340
        k(  444) = (  -0.2291667   0.7291667  -0.2291667), wk =   0.0004340
        k(  445) = (   0.7500000  -0.2500000   0.7500000), wk =   0.0004340
        k(  446) = (   0.7291667  -0.2291667   0.7291667), wk =   0.0004340
        k(  447) = (   0.7083333  -0.2083333   0.7083333), wk =   0.0004340
        k(  448) = (   0.6875000  -0.1875000   0.6875000), wk =   0.0004340
        k(  449) = (   0.6666667  -0.1666667   0.6666667), wk =   0.0004340
        k(  450) = (   0.6458333  -0.1458333   0.6458333), wk =   0.0004340
        k(  451) = (   0.6250000  -0.1250000   0.6250000), wk =   0.0004340
        k(  452) = (   0.6041667  -0.1041667   0.6041667), wk =   0.0004340
        k(  453) = (   0.5833333  -0.0833333   0.5833333), wk =   0.0004340
        k(  454) = (   0.5625000  -0.0625000   0.5625000), wk =   0.0004340
        k(  455) = (   0.5416667  -0.0416667   0.5416667), wk =   0.0004340
        k(  456) = (   0.5208333  -0.0208333   0.5208333), wk =   0.0004340
        k(  457) = (   0.5000000   0.0000000   0.5000000), wk =   0.0002170
        k(  458) = (   0.0000000   0.5416667   0.0000000), wk =   0.0001085
        k(  459) = (  -0.0208333   0.5625000  -0.0208333), wk =   0.0004340
        k(  460) = (  -0.0416667   0.5833333  -0.0416667), wk =   0.0004340
        k(  461) = (  -0.0625000   0.6041667  -0.0625000), wk =   0.0004340
        k(  462) = (  -0.0833333   0.6250000  -0.0833333), wk =   0.0004340
        k(  463) = (  -0.1041667   0.6458333  -0.1041667), wk =   0.0004340
        k(  464) = (  -0.1250000   0.6666667  -0.1250000), wk =   0.0004340
        k(  465) = (  -0.1458333   0.6875000  -0.1458333), wk =   0.0004340
        k(  466) = (  -0.1666667   0.7083333  -0.1666667), wk =   0.0004340
        k(  467) = (  -0.1875000   0.7291667  -0.1875000), wk =   0.0004340
        k(  468) = (  -0.2083333   0.7500000  -0.2083333), wk =   0.0004340
        k(  469) = (   0.7708333  -0.2291667   0.7708333), wk =   0.0004340
        k(  470) = (   0.7500000  -0.2083333   0.7500000), wk =   0.0004340
        k(  471) = (   0.7291667  -0.1875000   0.7291667), wk =   0.0004340
        k(  472) = (   0.7083333  -0.1666667   0.7083333), wk =   0.0004340
        k(  473) = (   0.6875000  -0.1458333   0.6875000), wk =   0.0004340
        k(  474) = (   0.6666667  -0.1250000   0.6666667), wk =   0.0004340
        k(  475) = (   0.6458333  -0.1041667   0.6458333), wk =   0.0004340
        k(  476) = (   0.6250000  -0.0833333   0.6250000), wk =   0.0004340
        k(  477) = (   0.6041667  -0.0625000   0.6041667), wk =   0.0004340
        k(  478) = (   0.5833333  -0.0416667   0.5833333), wk =   0.0004340
        k(  479) = (   0.5625000  -0.0208333   0.5625000), wk =   0.0004340
        k(  480) = (   0.5416667  -0.0000000   0.5416667), wk =   0.0002170
        k(  481) = (   0.0000000   0.5833333   0.0000000), wk =   0.0001085
        k(  482) = (  -0.0208333   0.6041667  -0.0208333), wk =   0.0004340
        k(  483) = (  -0.0416667   0.6250000  -0.0416667), wk =   0.0004340
        k(  484) = (  -0.0625000   0.6458333  -0.0625000), wk =   0.0004340
        k(  485) = (  -0.0833333   0.6666667  -0.0833333), wk =   0.0004340
        k(  486) = (  -0.1041667   0.6875000  -0.1041667), wk =   0.0004340
        k(  487) = (  -0.1250000   0.7083333  -0.1250000), wk =   0.0004340
        k(  488) = (  -0.1458333   0.7291667  -0.1458333), wk =   0.0004340
        k(  489) = (  -0.1666667   0.7500000  -0.1666667), wk =   0.0004340
        k(  490) = (  -0.1875000   0.7708333  -0.1875000), wk =   0.0004340
        k(  491) = (   0.7916667  -0.2083333   0.7916667), wk =   0.0004340
        k(  492) = (   0.7708333  -0.1875000   0.7708333), wk =   0.0004340
        k(  493) = (   0.7500000  -0.1666667   0.7500000), wk =   0.0004340
        k(  494) = (   0.7291667  -0.1458333   0.7291667), wk =   0.0004340
        k(  495) = (   0.7083333  -0.1250000   0.7083333), wk =   0.0004340
        k(  496) = (   0.6875000  -0.1041667   0.6875000), wk =   0.0004340
        k(  497) = (   0.6666667  -0.0833333   0.6666667), wk =   0.0004340
        k(  498) = (   0.6458333  -0.0625000   0.6458333), wk =   0.0004340
        k(  499) = (   0.6250000  -0.0416667   0.6250000), wk =   0.0004340
        k(  500) = (   0.6041667  -0.0208333   0.6041667), wk =   0.0004340
        k(  501) = (   0.5833333   0.0000000   0.5833333), wk =   0.0002170
        k(  502) = (   0.0000000   0.6250000   0.0000000), wk =   0.0001085
        k(  503) = (  -0.0208333   0.6458333  -0.0208333), wk =   0.0004340
        k(  504) = (  -0.0416667   0.6666667  -0.0416667), wk =   0.0004340
        k(  505) = (  -0.0625000   0.6875000  -0.0625000), wk =   0.0004340
        k(  506) = (  -0.0833333   0.7083333  -0.0833333), wk =   0.0004340
        k(  507) = (  -0.1041667   0.7291667  -0.1041667), wk =   0.0004340
        k(  508) = (  -0.1250000   0.7500000  -0.1250000), wk =   0.0004340
        k(  509) = (  -0.1458333   0.7708333  -0.1458333), wk =   0.0004340
        k(  510) = (  -0.1666667   0.7916667  -0.1666667), wk =   0.0004340
        k(  511) = (   0.8125000  -0.1875000   0.8125000), wk =   0.0004340
        k(  512) = (   0.7916667  -0.1666667   0.7916667), wk =   0.0004340
        k(  513) = (   0.7708333  -0.1458333   0.7708333), wk =   0.0004340
        k(  514) = (   0.7500000  -0.1250000   0.7500000), wk =   0.0004340
        k(  515) = (   0.7291667  -0.1041667   0.7291667), wk =   0.0004340
        k(  516) = (   0.7083333  -0.0833333   0.7083333), wk =   0.0004340
        k(  517) = (   0.6875000  -0.0625000   0.6875000), wk =   0.0004340
        k(  518) = (   0.6666667  -0.0416667   0.6666667), wk =   0.0004340
        k(  519) = (   0.6458333  -0.0208333   0.6458333), wk =   0.0004340
        k(  520) = (   0.6250000   0.0000000   0.6250000), wk =   0.0002170
        k(  521) = (   0.0000000   0.6666667   0.0000000), wk =   0.0001085
        k(  522) = (  -0.0208333   0.6875000  -0.0208333), wk =   0.0004340
        k(  523) = (  -0.0416667   0.7083333  -0.0416667), wk =   0.0004340
        k(  524) = (  -0.0625000   0.7291667  -0.0625000), wk =   0.0004340
        k(  525) = (  -0.0833333   0.7500000  -0.0833333), wk =   0.0004340
        k(  526) = (  -0.1041667   0.7708333  -0.1041667), wk =   0.0004340
        k(  527) = (  -0.1250000   0.7916667  -0.1250000), wk =   0.0004340
        k(  528) = (  -0.1458333   0.8125000  -0.1458333), wk =   0.0004340
        k(  529) = (   0.8333333  -0.1666667   0.8333333), wk =   0.0004340
        k(  530) = (   0.8125000  -0.1458333   0.8125000), wk =   0.0004340
        k(  531) = (   0.7916667  -0.1250000   0.7916667), wk =   0.0004340
        k(  532) = (   0.7708333  -0.1041667   0.7708333), wk =   0.0004340
        k(  533) = (   0.7500000  -0.0833333   0.7500000), wk =   0.0004340
        k(  534) = (   0.7291667  -0.0625000   0.7291667), wk =   0.0004340
        k(  535) = (   0.7083333  -0.0416667   0.7083333), wk =   0.0004340
        k(  536) = (   0.6875000  -0.0208333   0.6875000), wk =   0.0004340
        k(  537) = (   0.6666667  -0.0000000   0.6666667), wk =   0.0002170
        k(  538) = (   0.0000000   0.7083333   0.0000000), wk =   0.0001085
        k(  539) = (  -0.0208333   0.7291667  -0.0208333), wk =   0.0004340
        k(  540) = (  -0.0416667   0.7500000  -0.0416667), wk =   0.0004340
        k(  541) = (  -0.0625000   0.7708333  -0.0625000), wk =   0.0004340
        k(  542) = (  -0.0833333   0.7916667  -0.0833333), wk =   0.0004340
        k(  543) = (  -0.1041667   0.8125000  -0.1041667), wk =   0.0004340
        k(  544) = (  -0.1250000   0.8333333  -0.1250000), wk =   0.0004340
        k(  545) = (   0.8541667  -0.1458333   0.8541667), wk =   0.0004340
        k(  546) = (   0.8333333  -0.1250000   0.8333333), wk =   0.0004340
        k(  547) = (   0.8125000  -0.1041667   0.8125000), wk =   0.0004340
        k(  548) = (   0.7916667  -0.0833333   0.7916667), wk =   0.0004340
        k(  549) = (   0.7708333  -0.0625000   0.7708333), wk =   0.0004340
        k(  550) = (   0.7500000  -0.0416667   0.7500000), wk =   0.0004340
        k(  551) = (   0.7291667  -0.0208333   0.7291667), wk =   0.0004340
        k(  552) = (   0.7083333   0.0000000   0.7083333), wk =   0.0002170
        k(  553) = (   0.0000000   0.7500000   0.0000000), wk =   0.0001085
        k(  554) = (  -0.0208333   0.7708333  -0.0208333), wk =   0.0004340
        k(  555) = (  -0.0416667   0.7916667  -0.0416667), wk =   0.0004340
        k(  556) = (  -0.0625000   0.8125000  -0.0625000), wk =   0.0004340
        k(  557) = (  -0.0833333   0.8333333  -0.0833333), wk =   0.0004340
        k(  558) = (  -0.1041667   0.8541667  -0.1041667), wk =   0.0004340
        k(  559) = (   0.8750000  -0.1250000   0.8750000), wk =   0.0004340
        k(  560) = (   0.8541667  -0.1041667   0.8541667), wk =   0.0004340
        k(  561) = (   0.8333333  -0.0833333   0.8333333), wk =   0.0004340
        k(  562) = (   0.8125000  -0.0625000   0.8125000), wk =   0.0004340
        k(  563) = (   0.7916667  -0.0416667   0.7916667), wk =   0.0004340
        k(  564) = (   0.7708333  -0.0208333   0.7708333), wk =   0.0004340
        k(  565) = (   0.7500000   0.0000000   0.7500000), wk =   0.0002170
        k(  566) = (   0.0000000   0.7916667   0.0000000), wk =   0.0001085
        k(  567) = (  -0.0208333   0.8125000  -0.0208333), wk =   0.0004340
        k(  568) = (  -0.0416667   0.8333333  -0.0416667), wk =   0.0004340
        k(  569) = (  -0.0625000   0.8541667  -0.0625000), wk =   0.0004340
        k(  570) = (  -0.0833333   0.8750000  -0.0833333), wk =   0.0004340
        k(  571) = (   0.8958333  -0.1041667   0.8958333), wk =   0.0004340
        k(  572) = (   0.8750000  -0.0833333   0.8750000), wk =   0.0004340
        k(  573) = (   0.8541667  -0.0625000   0.8541667), wk =   0.0004340
        k(  574) = (   0.8333333  -0.0416667   0.8333333), wk =   0.0004340
        k(  575) = (   0.8125000  -0.0208333   0.8125000), wk =   0.0004340
        k(  576) = (   0.7916667  -0.0000000   0.7916667), wk =   0.0002170
        k(  577) = (   0.0000000   0.8333333   0.0000000), wk =   0.0001085
        k(  578) = (  -0.0208333   0.8541667  -0.0208333), wk =   0.0004340
        k(  579) = (  -0.0416667   0.8750000  -0.0416667), wk =   0.0004340
        k(  580) = (  -0.0625000   0.8958333  -0.0625000), wk =   0.0004340
        k(  581) = (   0.9166667  -0.0833333   0.9166667), wk =   0.0004340
        k(  582) = (   0.8958333  -0.0625000   0.8958333), wk =   0.0004340
        k(  583) = (   0.8750000  -0.0416667   0.8750000), wk =   0.0004340
        k(  584) = (   0.8541667  -0.0208333   0.8541667), wk =   0.0004340
        k(  585) = (   0.8333333   0.0000000   0.8333333), wk =   0.0002170
        k(  586) = (   0.0000000   0.8750000   0.0000000), wk =   0.0001085
        k(  587) = (  -0.0208333   0.8958333  -0.0208333), wk =   0.0004340
        k(  588) = (  -0.0416667   0.9166667  -0.0416667), wk =   0.0004340
        k(  589) = (   0.9375000  -0.0625000   0.9375000), wk =   0.0004340
        k(  590) = (   0.9166667  -0.0416667   0.9166667), wk =   0.0004340
        k(  591) = (   0.8958333  -0.0208333   0.8958333), wk =   0.0004340
        k(  592) = (   0.8750000   0.0000000   0.8750000), wk =   0.0002170
        k(  593) = (   0.0000000   0.9166667   0.0000000), wk =   0.0001085
        k(  594) = (  -0.0208333   0.9375000  -0.0208333), wk =   0.0004340
        k(  595) = (   0.9583333  -0.0416667   0.9583333), wk =   0.0004340
        k(  596) = (   0.9375000  -0.0208333   0.9375000), wk =   0.0004340
        k(  597) = (   0.9166667  -0.0000000   0.9166667), wk =   0.0002170
        k(  598) = (   0.0000000   0.9583333   0.0000000), wk =   0.0001085
        k(  599) = (   0.9791667  -0.0208333   0.9791667), wk =   0.0004340
        k(  600) = (   0.9583333   0.0000000   0.9583333), wk =   0.0002170
        k(  601) = (   0.0000000  -1.0000000   0.0000000), wk =   0.0000543
        k(  602) = (  -0.0416667   0.0833333   0.0000000), wk =   0.0004340
        k(  603) = (  -0.0625000   0.1041667  -0.0208333), wk =   0.0008681
        k(  604) = (  -0.0833333   0.1250000  -0.0416667), wk =   0.0008681
        k(  605) = (  -0.1041667   0.1458333  -0.0625000), wk =   0.0008681
        k(  606) = (  -0.1250000   0.1666667  -0.0833333), wk =   0.0008681
        k(  607) = (  -0.1458333   0.1875000  -0.1041667), wk =   0.0008681
        k(  608) = (  -0.1666667   0.2083333  -0.1250000), wk =   0.0008681
        k(  609) = (  -0.1875000   0.2291667  -0.1458333), wk =   0.0008681
        k(  610) = (  -0.2083333   0.2500000  -0.1666667), wk =   0.0008681
        k(  611) = (  -0.2291667   0.2708333  -0.1875000), wk =   0.0008681
        k(  612) = (  -0.2500000   0.2916667  -0.2083333), wk =   0.0008681
        k(  613) = (  -0.2708333   0.3125000  -0.2291667), wk =   0.0008681
        k(  614) = (  -0.2916667   0.3333333  -0.2500000), wk =   0.0008681
        k(  615) = (  -0.3125000   0.3541667  -0.2708333), wk =   0.0008681
        k(  616) = (  -0.3333333   0.3750000  -0.2916667), wk =   0.0008681
        k(  617) = (  -0.3541667   0.3958333  -0.3125000), wk =   0.0008681
        k(  618) = (  -0.3750000   0.4166667  -0.3333333), wk =   0.0008681
        k(  619) = (  -0.3958333   0.4375000  -0.3541667), wk =   0.0008681
        k(  620) = (  -0.4166667   0.4583333  -0.3750000), wk =   0.0008681
        k(  621) = (  -0.4375000   0.4791667  -0.3958333), wk =   0.0008681
        k(  622) = (  -0.4583333   0.5000000  -0.4166667), wk =   0.0008681
        k(  623) = (   0.5208333  -0.4791667   0.5625000), wk =   0.0008681
        k(  624) = (   0.5000000  -0.4583333   0.5416667), wk =   0.0004340
        k(  625) = (  -0.0416667   0.1250000   0.0000000), wk =   0.0004340
        k(  626) = (  -0.0625000   0.1458333  -0.0208333), wk =   0.0008681
        k(  627) = (  -0.0833333   0.1666667  -0.0416667), wk =   0.0008681
        k(  628) = (  -0.1041667   0.1875000  -0.0625000), wk =   0.0008681
        k(  629) = (  -0.1250000   0.2083333  -0.0833333), wk =   0.0008681
        k(  630) = (  -0.1458333   0.2291667  -0.1041667), wk =   0.0008681
        k(  631) = (  -0.1666667   0.2500000  -0.1250000), wk =   0.0008681
        k(  632) = (  -0.1875000   0.2708333  -0.1458333), wk =   0.0008681
        k(  633) = (  -0.2083333   0.2916667  -0.1666667), wk =   0.0008681
        k(  634) = (  -0.2291667   0.3125000  -0.1875000), wk =   0.0008681
        k(  635) = (  -0.2500000   0.3333333  -0.2083333), wk =   0.0008681
        k(  636) = (  -0.2708333   0.3541667  -0.2291667), wk =   0.0008681
        k(  637) = (  -0.2916667   0.3750000  -0.2500000), wk =   0.0008681
        k(  638) = (  -0.3125000   0.3958333  -0.2708333), wk =   0.0008681
        k(  639) = (  -0.3333333   0.4166667  -0.2916667), wk =   0.0008681
        k(  640) = (  -0.3541667   0.4375000  -0.3125000), wk =   0.0008681
        k(  641) = (  -0.3750000   0.4583333  -0.3333333), wk =   0.0008681
        k(  642) = (  -0.3958333   0.4791667  -0.3541667), wk =   0.0008681
        k(  643) = (  -0.4166667   0.5000000  -0.3750000), wk =   0.0008681
        k(  644) = (  -0.4375000   0.5208333  -0.3958333), wk =   0.0008681
        k(  645) = (   0.5416667  -0.4583333   0.5833333), wk =   0.0008681
        k(  646) = (   0.5208333  -0.4375000   0.5625000), wk =   0.0008681
        k(  647) = (   0.5000000  -0.4166667   0.5416667), wk =   0.0008681
        k(  648) = (   0.4791667  -0.3958333   0.5208333), wk =   0.0008681
        k(  649) = (   0.4583333  -0.3750000   0.5000000), wk =   0.0008681
        k(  650) = (   0.4375000  -0.3541667   0.4791667), wk =   0.0008681
        k(  651) = (   0.4166667  -0.3333333   0.4583333), wk =   0.0008681
        k(  652) = (   0.3958333  -0.3125000   0.4375000), wk =   0.0008681
        k(  653) = (   0.3750000  -0.2916667   0.4166667), wk =   0.0008681
        k(  654) = (   0.3541667  -0.2708333   0.3958333), wk =   0.0008681
        k(  655) = (   0.3333333  -0.2500000   0.3750000), wk =   0.0008681
        k(  656) = (   0.3125000  -0.2291667   0.3541667), wk =   0.0008681
        k(  657) = (   0.2916667  -0.2083333   0.3333333), wk =   0.0008681
        k(  658) = (   0.2708333  -0.1875000   0.3125000), wk =   0.0008681
        k(  659) = (   0.2500000  -0.1666667   0.2916667), wk =   0.0008681
        k(  660) = (   0.2291667  -0.1458333   0.2708333), wk =   0.0008681
        k(  661) = (   0.2083333  -0.1250000   0.2500000), wk =   0.0008681
        k(  662) = (   0.1875000  -0.1041667   0.2291667), wk =   0.0008681
        k(  663) = (   0.1666667  -0.0833333   0.2083333), wk =   0.0008681
        k(  664) = (   0.1458333  -0.0625000   0.1875000), wk =   0.0008681
        k(  665) = (   0.1250000  -0.0416667   0.1666667), wk =   0.0008681
        k(  666) = (   0.1041667  -0.0208333   0.1458333), wk =   0.0008681
        k(  667) = (   0.0833333   0.0000000   0.1250000), wk =   0.0004340
        k(  668) = (  -0.0416667   0.1666667  -0.0000000), wk =   0.0004340
        k(  669) = (  -0.0625000   0.1875000  -0.0208333), wk =   0.0008681
        k(  670) = (  -0.0833333   0.2083333  -0.0416667), wk =   0.0008681
        k(  671) = (  -0.1041667   0.2291667  -0.0625000), wk =   0.0008681
        k(  672) = (  -0.1250000   0.2500000  -0.0833333), wk =   0.0008681
        k(  673) = (  -0.1458333   0.2708333  -0.1041667), wk =   0.0008681
        k(  674) = (  -0.1666667   0.2916667  -0.1250000), wk =   0.0008681
        k(  675) = (  -0.1875000   0.3125000  -0.1458333), wk =   0.0008681
        k(  676) = (  -0.2083333   0.3333333  -0.1666667), wk =   0.0008681
        k(  677) = (  -0.2291667   0.3541667  -0.1875000), wk =   0.0008681
        k(  678) = (  -0.2500000   0.3750000  -0.2083333), wk =   0.0008681
        k(  679) = (  -0.2708333   0.3958333  -0.2291667), wk =   0.0008681
        k(  680) = (  -0.2916667   0.4166667  -0.2500000), wk =   0.0008681
        k(  681) = (  -0.3125000   0.4375000  -0.2708333), wk =   0.0008681
        k(  682) = (  -0.3333333   0.4583333  -0.2916667), wk =   0.0008681
        k(  683) = (  -0.3541667   0.4791667  -0.3125000), wk =   0.0008681
        k(  684) = (  -0.3750000   0.5000000  -0.3333333), wk =   0.0008681
        k(  685) = (  -0.3958333   0.5208333  -0.3541667), wk =   0.0008681
        k(  686) = (  -0.4166667   0.5416667  -0.3750000), wk =   0.0008681
        k(  687) = (   0.5625000  -0.4375000   0.6041667), wk =   0.0008681
        k(  688) = (   0.5416667  -0.4166667   0.5833333), wk =   0.0008681
        k(  689) = (   0.5208333  -0.3958333   0.5625000), wk =   0.0008681
        k(  690) = (   0.5000000  -0.3750000   0.5416667), wk =   0.0008681
        k(  691) = (   0.4791667  -0.3541667   0.5208333), wk =   0.0008681
        k(  692) = (   0.4583333  -0.3333333   0.5000000), wk =   0.0008681
        k(  693) = (   0.4375000  -0.3125000   0.4791667), wk =   0.0008681
        k(  694) = (   0.4166667  -0.2916667   0.4583333), wk =   0.0008681
        k(  695) = (   0.3958333  -0.2708333   0.4375000), wk =   0.0008681
        k(  696) = (   0.3750000  -0.2500000   0.4166667), wk =   0.0008681
        k(  697) = (   0.3541667  -0.2291667   0.3958333), wk =   0.0008681
        k(  698) = (   0.3333333  -0.2083333   0.3750000), wk =   0.0008681
        k(  699) = (   0.3125000  -0.1875000   0.3541667), wk =   0.0008681
        k(  700) = (   0.2916667  -0.1666667   0.3333333), wk =   0.0008681
        k(  701) = (   0.2708333  -0.1458333   0.3125000), wk =   0.0008681
        k(  702) = (   0.2500000  -0.1250000   0.2916667), wk =   0.0008681
        k(  703) = (   0.2291667  -0.1041667   0.2708333), wk =   0.0008681
        k(  704) = (   0.2083333  -0.0833333   0.2500000), wk =   0.0008681
        k(  705) = (   0.1875000  -0.0625000   0.2291667), wk =   0.0008681
        k(  706) = (   0.1666667  -0.0416667   0.2083333), wk =   0.0008681
        k(  707) = (   0.1458333  -0.0208333   0.1875000), wk =   0.0008681
        k(  708) = (   0.1250000   0.0000000   0.1666667), wk =   0.0004340
        k(  709) = (  -0.0416667   0.2083333   0.0000000), wk =   0.0004340
        k(  710) = (  -0.0625000   0.2291667  -0.0208333), wk =   0.0008681
        k(  711) = (  -0.0833333   0.2500000  -0.0416667), wk =   0.0008681
        k(  712) = (  -0.1041667   0.2708333  -0.0625000), wk =   0.0008681
        k(  713) = (  -0.1250000   0.2916667  -0.0833333), wk =   0.0008681
        k(  714) = (  -0.1458333   0.3125000  -0.1041667), wk =   0.0008681
        k(  715) = (  -0.1666667   0.3333333  -0.1250000), wk =   0.0008681
        k(  716) = (  -0.1875000   0.3541667  -0.1458333), wk =   0.0008681
        k(  717) = (  -0.2083333   0.3750000  -0.1666667), wk =   0.0008681
        k(  718) = (  -0.2291667   0.3958333  -0.1875000), wk =   0.0008681
        k(  719) = (  -0.2500000   0.4166667  -0.2083333), wk =   0.0008681
        k(  720) = (  -0.2708333   0.4375000  -0.2291667), wk =   0.0008681
        k(  721) = (  -0.2916667   0.4583333  -0.2500000), wk =   0.0008681
        k(  722) = (  -0.3125000   0.4791667  -0.2708333), wk =   0.0008681
        k(  723) = (  -0.3333333   0.5000000  -0.2916667), wk =   0.0008681
        k(  724) = (  -0.3541667   0.5208333  -0.3125000), wk =   0.0008681
        k(  725) = (  -0.3750000   0.5416667  -0.3333333), wk =   0.0008681
        k(  726) = (  -0.3958333   0.5625000  -0.3541667), wk =   0.0008681
        k(  727) = (   0.5833333  -0.4166667   0.6250000), wk =   0.0008681
        k(  728) = (   0.5625000  -0.3958333   0.6041667), wk =   0.0008681
        k(  729) = (   0.5416667  -0.3750000   0.5833333), wk =   0.0008681
        k(  730) = (   0.5208333  -0.3541667   0.5625000), wk =   0.0008681
        k(  731) = (   0.5000000  -0.3333333   0.5416667), wk =   0.0008681
        k(  732) = (   0.4791667  -0.3125000   0.5208333), wk =   0.0008681
        k(  733) = (   0.4583333  -0.2916667   0.5000000), wk =   0.0008681
        k(  734) = (   0.4375000  -0.2708333   0.4791667), wk =   0.0008681
        k(  735) = (   0.4166667  -0.2500000   0.4583333), wk =   0.0008681
        k(  736) = (   0.3958333  -0.2291667   0.4375000), wk =   0.0008681
        k(  737) = (   0.3750000  -0.2083333   0.4166667), wk =   0.0008681
        k(  738) = (   0.3541667  -0.1875000   0.3958333), wk =   0.0008681
        k(  739) = (   0.3333333  -0.1666667   0.3750000), wk =   0.0008681
        k(  740) = (   0.3125000  -0.1458333   0.3541667), wk =   0.0008681
        k(  741) = (   0.2916667  -0.1250000   0.3333333), wk =   0.0008681
        k(  742) = (   0.2708333  -0.1041667   0.3125000), wk =   0.0008681
        k(  743) = (   0.2500000  -0.0833333   0.2916667), wk =   0.0008681
        k(  744) = (   0.2291667  -0.0625000   0.2708333), wk =   0.0008681
        k(  745) = (   0.2083333  -0.0416667   0.2500000), wk =   0.0008681
        k(  746) = (   0.1875000  -0.0208333   0.2291667), wk =   0.0008681
        k(  747) = (   0.1666667  -0.0000000   0.2083333), wk =   0.0004340
        k(  748) = (  -0.0416667   0.2500000   0.0000000), wk =   0.0004340
        k(  749) = (  -0.0625000   0.2708333  -0.0208333), wk =   0.0008681
        k(  750) = (  -0.0833333   0.2916667  -0.0416667), wk =   0.0008681
        k(  751) = (  -0.1041667   0.3125000  -0.0625000), wk =   0.0008681
        k(  752) = (  -0.1250000   0.3333333  -0.0833333), wk =   0.0008681
        k(  753) = (  -0.1458333   0.3541667  -0.1041667), wk =   0.0008681
        k(  754) = (  -0.1666667   0.3750000  -0.1250000), wk =   0.0008681
        k(  755) = (  -0.1875000   0.3958333  -0.1458333), wk =   0.0008681
        k(  756) = (  -0.2083333   0.4166667  -0.1666667), wk =   0.0008681
        k(  757) = (  -0.2291667   0.4375000  -0.1875000), wk =   0.0008681
        k(  758) = (  -0.2500000   0.4583333  -0.2083333), wk =   0.0008681
        k(  759) = (  -0.2708333   0.4791667  -0.2291667), wk =   0.0008681
        k(  760) = (  -0.2916667   0.5000000  -0.2500000), wk =   0.0008681
        k(  761) = (  -0.3125000   0.5208333  -0.2708333), wk =   0.0008681
        k(  762) = (  -0.3333333   0.5416667  -0.2916667), wk =   0.0008681
        k(  763) = (  -0.3541667   0.5625000  -0.3125000), wk =   0.0008681
        k(  764) = (  -0.3750000   0.5833333  -0.3333333), wk =   0.0008681
        k(  765) = (   0.6041667  -0.3958333   0.6458333), wk =   0.0008681
        k(  766) = (   0.5833333  -0.3750000   0.6250000), wk =   0.0008681
        k(  767) = (   0.5625000  -0.3541667   0.6041667), wk =   0.0008681
        k(  768) = (   0.5416667  -0.3333333   0.5833333), wk =   0.0008681
        k(  769) = (   0.5208333  -0.3125000   0.5625000), wk =   0.0008681
        k(  770) = (   0.5000000  -0.2916667   0.5416667), wk =   0.0008681
        k(  771) = (   0.4791667  -0.2708333   0.5208333), wk =   0.0008681
        k(  772) = (   0.4583333  -0.2500000   0.5000000), wk =   0.0008681
        k(  773) = (   0.4375000  -0.2291667   0.4791667), wk =   0.0008681
        k(  774) = (   0.4166667  -0.2083333   0.4583333), wk =   0.0008681
        k(  775) = (   0.3958333  -0.1875000   0.4375000), wk =   0.0008681
        k(  776) = (   0.3750000  -0.1666667   0.4166667), wk =   0.0008681
        k(  777) = (   0.3541667  -0.1458333   0.3958333), wk =   0.0008681
        k(  778) = (   0.3333333  -0.1250000   0.3750000), wk =   0.0008681
        k(  779) = (   0.3125000  -0.1041667   0.3541667), wk =   0.0008681
        k(  780) = (   0.2916667  -0.0833333   0.3333333), wk =   0.0008681
        k(  781) = (   0.2708333  -0.0625000   0.3125000), wk =   0.0008681
        k(  782) = (   0.2500000  -0.0416667   0.2916667), wk =   0.0008681
        k(  783) = (   0.2291667  -0.0208333   0.2708333), wk =   0.0008681
        k(  784) = (   0.2083333   0.0000000   0.2500000), wk =   0.0004340
        k(  785) = (  -0.0416667   0.2916667   0.0000000), wk =   0.0004340
        k(  786) = (  -0.0625000   0.3125000  -0.0208333), wk =   0.0008681
        k(  787) = (  -0.0833333   0.3333333  -0.0416667), wk =   0.0008681
        k(  788) = (  -0.1041667   0.3541667  -0.0625000), wk =   0.0008681
        k(  789) = (  -0.1250000   0.3750000  -0.0833333), wk =   0.0008681
        k(  790) = (  -0.1458333   0.3958333  -0.1041667), wk =   0.0008681
        k(  791) = (  -0.1666667   0.4166667  -0.1250000), wk =   0.0008681
        k(  792) = (  -0.1875000   0.4375000  -0.1458333), wk =   0.0008681
        k(  793) = (  -0.2083333   0.4583333  -0.1666667), wk =   0.0008681
        k(  794) = (  -0.2291667   0.4791667  -0.1875000), wk =   0.0008681
        k(  795) = (  -0.2500000   0.5000000  -0.2083333), wk =   0.0008681
        k(  796) = (  -0.2708333   0.5208333  -0.2291667), wk =   0.0008681
        k(  797) = (  -0.2916667   0.5416667  -0.2500000), wk =   0.0008681
        k(  798) = (  -0.3125000   0.5625000  -0.2708333), wk =   0.0008681
        k(  799) = (  -0.3333333   0.5833333  -0.2916667), wk =   0.0008681
        k(  800) = (  -0.3541667   0.6041667  -0.3125000), wk =   0.0008681
        k(  801) = (   0.6250000  -0.3750000   0.6666667), wk =   0.0008681
        k(  802) = (   0.6041667  -0.3541667   0.6458333), wk =   0.0008681
        k(  803) = (   0.5833333  -0.3333333   0.6250000), wk =   0.0008681
        k(  804) = (   0.5625000  -0.3125000   0.6041667), wk =   0.0008681
        k(  805) = (   0.5416667  -0.2916667   0.5833333), wk =   0.0008681
        k(  806) = (   0.5208333  -0.2708333   0.5625000), wk =   0.0008681
        k(  807) = (   0.5000000  -0.2500000   0.5416667), wk =   0.0008681
        k(  808) = (   0.4791667  -0.2291667   0.5208333), wk =   0.0008681
        k(  809) = (   0.4583333  -0.2083333   0.5000000), wk =   0.0008681
        k(  810) = (   0.4375000  -0.1875000   0.4791667), wk =   0.0008681
        k(  811) = (   0.4166667  -0.1666667   0.4583333), wk =   0.0008681
        k(  812) = (   0.3958333  -0.1458333   0.4375000), wk =   0.0008681
        k(  813) = (   0.3750000  -0.1250000   0.4166667), wk =   0.0008681
        k(  814) = (   0.3541667  -0.1041667   0.3958333), wk =   0.0008681
        k(  815) = (   0.3333333  -0.0833333   0.3750000), wk =   0.0008681
        k(  816) = (   0.3125000  -0.0625000   0.3541667), wk =   0.0008681
        k(  817) = (   0.2916667  -0.0416667   0.3333333), wk =   0.0008681
        k(  818) = (   0.2708333  -0.0208333   0.3125000), wk =   0.0008681
        k(  819) = (   0.2500000   0.0000000   0.2916667), wk =   0.0004340
        k(  820) = (  -0.0416667   0.3333333   0.0000000), wk =   0.0004340
        k(  821) = (  -0.0625000   0.3541667  -0.0208333), wk =   0.0008681
        k(  822) = (  -0.0833333   0.3750000  -0.0416667), wk =   0.0008681
        k(  823) = (  -0.1041667   0.3958333  -0.0625000), wk =   0.0008681
        k(  824) = (  -0.1250000   0.4166667  -0.0833333), wk =   0.0008681
        k(  825) = (  -0.1458333   0.4375000  -0.1041667), wk =   0.0008681
        k(  826) = (  -0.1666667   0.4583333  -0.1250000), wk =   0.0008681
        k(  827) = (  -0.1875000   0.4791667  -0.1458333), wk =   0.0008681
        k(  828) = (  -0.2083333   0.5000000  -0.1666667), wk =   0.0008681
        k(  829) = (  -0.2291667   0.5208333  -0.1875000), wk =   0.0008681
        k(  830) = (  -0.2500000   0.5416667  -0.2083333), wk =   0.0008681
        k(  831) = (  -0.2708333   0.5625000  -0.2291667), wk =   0.0008681
        k(  832) = (  -0.2916667   0.5833333  -0.2500000), wk =   0.0008681
        k(  833) = (  -0.3125000   0.6041667  -0.2708333), wk =   0.0008681
        k(  834) = (  -0.3333333   0.6250000  -0.2916667), wk =   0.0008681
        k(  835) = (   0.6458333  -0.3541667   0.6875000), wk =   0.0008681
        k(  836) = (   0.6250000  -0.3333333   0.6666667), wk =   0.0008681
        k(  837) = (   0.6041667  -0.3125000   0.6458333), wk =   0.0008681
        k(  838) = (   0.5833333  -0.2916667   0.6250000), wk =   0.0008681
        k(  839) = (   0.5625000  -0.2708333   0.6041667), wk =   0.0008681
        k(  840) = (   0.5416667  -0.2500000   0.5833333), wk =   0.0008681
        k(  841) = (   0.5208333  -0.2291667   0.5625000), wk =   0.0008681
        k(  842) = (   0.5000000  -0.2083333   0.5416667), wk =   0.0008681
        k(  843) = (   0.4791667  -0.1875000   0.5208333), wk =   0.0008681
        k(  844) = (   0.4583333  -0.1666667   0.5000000), wk =   0.0008681
        k(  845) = (   0.4375000  -0.1458333   0.4791667), wk =   0.0008681
        k(  846) = (   0.4166667  -0.1250000   0.4583333), wk =   0.0008681
        k(  847) = (   0.3958333  -0.1041667   0.4375000), wk =   0.0008681
        k(  848) = (   0.3750000  -0.0833333   0.4166667), wk =   0.0008681
        k(  849) = (   0.3541667  -0.0625000   0.3958333), wk =   0.0008681
        k(  850) = (   0.3333333  -0.0416667   0.3750000), wk =   0.0008681
        k(  851) = (   0.3125000  -0.0208333   0.3541667), wk =   0.0008681
        k(  852) = (   0.2916667  -0.0000000   0.3333333), wk =   0.0004340
        k(  853) = (  -0.0416667   0.3750000   0.0000000), wk =   0.0004340
        k(  854) = (  -0.0625000   0.3958333  -0.0208333), wk =   0.0008681
        k(  855) = (  -0.0833333   0.4166667  -0.0416667), wk =   0.0008681
        k(  856) = (  -0.1041667   0.4375000  -0.0625000), wk =   0.0008681
        k(  857) = (  -0.1250000   0.4583333  -0.0833333), wk =   0.0008681
        k(  858) = (  -0.1458333   0.4791667  -0.1041667), wk =   0.0008681
        k(  859) = (  -0.1666667   0.5000000  -0.1250000), wk =   0.0008681
        k(  860) = (  -0.1875000   0.5208333  -0.1458333), wk =   0.0008681
        k(  861) = (  -0.2083333   0.5416667  -0.1666667), wk =   0.0008681
        k(  862) = (  -0.2291667   0.5625000  -0.1875000), wk =   0.0008681
[...]

    -1.4864  -1.1873   2.2367   2.6036   9.6163  10.2689  12.1079  12.1715
    16.7175  17.3192  19.2843  19.9507  22.6361  23.1949  24.5102  24.5886
    25.1220  25.4348  26.7464  27.6339  29.8009  30.3893  32.6899  32.8240
    35.1104

     occupation numbers 
     1.0000   1.0000   1.0000   1.0000   0.0000   0.0000   0.0000   0.0000
     0.0000   0.0000   0.0000   0.0000   0.0000   0.0000   0.0000   0.0000
     0.0000   0.0000   0.0000   0.0000   0.0000   0.0000   0.0000   0.0000
     0.0000

          k =-0.3750-1.0000 0.0000 (   258 PWs)   bands (ev):

    -1.3490  -1.3490   2.4770   2.4770   9.4948   9.4948  12.6498  12.6498
    17.1005  17.1005  19.5175  19.5175  23.0268  23.0268  24.1831  24.1831
    25.1246  25.1246  27.6931  27.6931  29.9439  29.9440  32.0427  32.0427
    35.7571

     occupation numbers 
     1.0000   1.0000   1.0000   1.0000   0.0000   0.0000   0.0000   0.0000
     0.0000   0.0000   0.0000   0.0000   0.0000   0.0000   0.0000   0.0000
     0.0000   0.0000   0.0000   0.0000   0.0000   0.0000   0.0000   0.0000
     0.0000

          k = 0.5833-0.1667 1.0000 (   258 PWs)   bands (ev):

    -2.2853  -0.4247   2.1717   3.0778   9.9007  10.1368  10.9136  13.6694
    15.3085  17.0139  19.5939  20.8458  21.2304  22.8202  23.0051  25.2523
    26.4269  26.4445  27.1583  27.3765  29.5014  30.5671  32.1457  34.3276
    35.2735

     occupation numbers 
     1.0000   1.0000   1.0000   1.0000   0.0000   0.0000   0.0000   0.0000
     0.0000   0.0000   0.0000   0.0000   0.0000   0.0000   0.0000   0.0000
     0.0000   0.0000   0.0000   0.0000   0.0000   0.0000   0.0000   0.0000
     0.0000

          k = 0.5625-0.1458 0.9792 (   258 PWs)   bands (ev):

    -2.1333  -0.5683   2.1252   2.9884  10.0291  10.2911  10.9426  13.2074
    15.5048  17.1858  19.4087  20.8164  21.4459  23.0559  23.3260  25.1502
    26.2103  26.4136  27.0566  27.1100  29.4433  31.0501  31.9855  34.2846
    35.2441

     occupation numbers 
     1.0000   1.0000   1.0000   1.0000   0.0000   0.0000   0.0000   0.0000
     0.0000   0.0000   0.0000   0.0000   0.0000   0.0000   0.0000   0.0000
     0.0000   0.0000   0.0000   0.0000   0.0000   0.0000   0.0000   0.0000
     0.0000

          k = 0.5417-0.1250 0.9583 (   259 PWs)   bands (ev):

    -2.0013  -0.6951   2.0941   2.9214  10.0637  10.4190  11.1149  12.7595
    15.6320  17.3971  19.1655  20.8001  21.6129  23.2237  23.7921  24.9291
    25.8700  26.3964  26.8812  27.1177  29.4106  31.3397  32.0949  34.1723
    34.8658

     occupation numbers 
     1.0000   1.0000   1.0000   1.0000   0.0000   0.0000   0.0000   0.0000
     0.0000   0.0000   0.0000   0.0000   0.0000   0.0000   0.0000   0.0000
     0.0000   0.0000   0.0000   0.0000   0.0000   0.0000   0.0000   0.0000
     0.0000

          k = 0.5208-0.1042 0.9375 (   258 PWs)   bands (ev):

    -1.9049  -0.7852   2.0767   2.8803  10.0808  10.4593  11.4074  12.3455
    15.7022  17.6001  18.9409  20.7961  21.7091  23.4607  24.1201  24.7616
    25.5093  26.3611  26.8122  27.1555  29.4059  31.3412  32.5841  33.7832
    34.6383

     occupation numbers 
     1.0000   1.0000   1.0000   1.0000   0.0000   0.0000   0.0000   0.0000
     0.0000   0.0000   0.0000   0.0000   0.0000   0.0000   0.0000   0.0000
     0.0000   0.0000   0.0000   0.0000   0.0000   0.0000   0.0000   0.0000
     0.0000

          k = 0.5000-0.0833 0.9167 (   258 PWs)   bands (ev):

    -1.8690  -0.8199   2.0710   2.8663  10.0860  10.4655  11.6249  12.0948
    15.7241  17.6935  18.8395  20.7955  21.7389  23.6096  24.1458  24.8391
    25.2621  26.3417  26.7987  27.1723  29.4032  31.3164  33.1192  33.2623
    34.6036

     occupation numbers 
     1.0000   1.0000   1.0000   1.0000   0.0000   0.0000   0.0000   0.0000
     0.0000   0.0000   0.0000   0.0000   0.0000   0.0000   0.0000   0.0000
     0.0000   0.0000   0.0000   0.0000   0.0000   0.0000   0.0000   0.0000
     0.0000

          k = 0.5833-0.1250 1.0000 (   258 PWs)   bands (ev):

    -2.0471  -0.6461   2.1923   2.8703   9.8899  10.0907  11.1629  13.2667
    15.7775  17.3863  19.2459  20.6307  21.6485  23.1709  23.2921  24.9749
    26.0164  26.6134  26.7868  27.2515  29.4308  30.9001  31.7700  34.4115
    34.7428

     occupation numbers 
     1.0000   1.0000   1.0000   1.0000   0.0000   0.0000   0.0000   0.0000
     0.0000   0.0000   0.0000   0.0000   0.0000   0.0000   0.0000   0.0000
     0.0000   0.0000   0.0000   0.0000   0.0000   0.0000   0.0000   0.0000
     0.0000

          k = 0.5625-0.1042 0.9792 (   258 PWs)   bands (ev):

    -1.9056  -0.7756   2.1597   2.7886  10.0134  10.3268  11.1346  12.8125
    15.9711  17.4945  19.1295  20.5480  21.8371  23.2655  23.7936  24.8003
    26.0112  26.3686  26.5182  27.1838  29.4652  31.1230  31.9385  34.4490
    34.6826

     occupation numbers 
     1.0000   1.0000   1.0000   1.0000   0.0000   0.0000   0.0000   0.0000
     0.0000   0.0000   0.0000   0.0000   0.0000   0.0000   0.0000   0.0000
     0.0000   0.0000   0.0000   0.0000   0.0000   0.0000   0.0000   0.0000
     0.0000

          k = 0.5417-0.0833 0.9583 (   259 PWs)   bands (ev):

    -1.7924  -0.8814   2.1335   2.7396  10.0644  10.5614  11.1980  12.3789
    16.0837  17.5939  19.0078  20.5128  21.9535  23.4092  24.1858  24.6792
    25.8704  26.1482  26.3683  27.1594  29.5204  31.0837  32.4448  34.3210
    34.6419

     occupation numbers 
     1.0000   1.0000   1.0000   1.0000   0.0000   0.0000   0.0000   0.0000
     0.0000   0.0000   0.0000   0.0000   0.0000   0.0000   0.0000   0.0000
     0.0000   0.0000   0.0000   0.0000   0.0000   0.0000   0.0000   0.0000
     0.0000

          k = 0.5208-0.0625 0.9375 (   258 PWs)   bands (ev):

    -1.7354  -0.9311   2.1119   2.7267  10.1113  10.6544  11.3989  12.0033
    16.1214  17.6182  18.9728  20.5123  21.9972  23.4784  24.2984  24.8735
    25.5797  26.0707  26.3634  27.1242  29.5661  31.0468  33.0543  33.7997
    34.7037

     occupation numbers 
     1.0000   1.0000   1.0000   1.0000   0.0000   0.0000   0.0000   0.0000
     0.0000   0.0000   0.0000   0.0000   0.0000   0.0000   0.0000   0.0000
     0.0000   0.0000   0.0000   0.0000   0.0000   0.0000   0.0000   0.0000
     0.0000

          k = 0.5000-0.0417 0.9167 (   258 PWs)   bands (ev):

    -1.7592  -0.9075   2.0961   2.7490  10.1570  10.6384  11.4180  11.9631
    16.0854  17.5357  19.0583  20.5389  21.9667  23.3639  24.4174  24.8663
    25.5878  26.1156  26.3912  27.0607  29.5629  31.0907  33.1615  33.6992
    34.5998

     occupation numbers 
     1.0000   1.0000   1.0000   1.0000   0.0000   0.0000   0.0000   0.0000
     0.0000   0.0000   0.0000   0.0000   0.0000   0.0000   0.0000   0.0000
     0.0000   0.0000   0.0000   0.0000   0.0000   0.0000   0.0000   0.0000
     0.0000

          k = 0.4792-0.0208 0.8958 (   260 PWs)   bands (ev):

    -1.8538  -0.8222   2.0901   2.8027  10.1999  10.5450  11.1622  12.3170
    15.9713  17.3976  19.2068  20.5962  21.8533  23.1920  24.2952  24.7949
    25.8966  26.2674  26.4379  26.9793  29.5152  31.2015  32.5693  34.1790
    34.6402

     occupation numbers 
     1.0000   1.0000   1.0000   1.0000   0.0000   0.0000   0.0000   0.0000
     0.0000   0.0000   0.0000   0.0000   0.0000   0.0000   0.0000   0.0000
     0.0000   0.0000   0.0000   0.0000   0.0000   0.0000   0.0000   0.0000
     0.0000

          k = 0.4583 0.0000 0.8750 (   259 PWs)   bands (ev):

    -1.9852  -0.7006   2.0986   2.8841  10.2322  10.3514  10.9934  12.7481
    15.7765  17.2719  19.3421  20.6969  21.6619  23.0854  23.8330  24.9828
    26.1371  26.3949  26.6714  26.9510  29.4688  31.2775  32.0968  34.2723
    35.0383

     occupation numbers 
     1.0000   1.0000   1.0000   1.0000   0.0000   0.0000   0.0000   0.0000
     0.0000   0.0000   0.0000   0.0000   0.0000   0.0000   0.0000   0.0000
     0.0000   0.0000   0.0000   0.0000   0.0000   0.0000   0.0000   0.0000
     0.0000

          k = 0.5833-0.0833 1.0000 (   258 PWs)   bands (ev):

    -1.8092  -0.8699   2.2376   2.6885   9.8921  10.0328  11.4604  12.8740
    16.2400  17.5637  19.0842  20.3036  22.0893  23.3527  23.7710  24.6890
    25.6047  26.1230  26.8718  27.3263  29.5096  30.8929  31.7796  33.9123
    34.8593

     occupation numbers 
     1.0000   1.0000   1.0000   1.0000   0.0000   0.0000   0.0000   0.0000
     0.0000   0.0000   0.0000   0.0000   0.0000   0.0000   0.0000   0.0000
     0.0000   0.0000   0.0000   0.0000   0.0000   0.0000   0.0000   0.0000
     0.0000

          k = 0.5625-0.0625 0.9792 (   258 PWs)   bands (ev):

    -1.6777  -0.9875   2.2169   2.6191  10.0020  10.3235  11.4052  12.4320
    16.4212  17.5387  19.1028  20.1910  22.2603  23.3620  24.2364  24.6303
    25.6228  25.8723  26.6113  27.2145  29.6400  30.8063  32.3143  33.9770
    34.7936

     occupation numbers 
     1.0000   1.0000   1.0000   1.0000   0.0000   0.0000   0.0000   0.0000
     0.0000   0.0000   0.0000   0.0000   0.0000   0.0000   0.0000   0.0000
     0.0000   0.0000   0.0000   0.0000   0.0000   0.0000   0.0000   0.0000
     0.0000

          k = 0.5417-0.0417 0.9583 (   258 PWs)   bands (ev):

    -1.5999  -1.0566   2.1835   2.6029  10.0579  10.6353  11.3992  12.0192
    16.4913  17.4980  19.1292  20.1669  22.3347  23.3355  24.4470  24.8586
    25.5436  25.8221  26.2792  27.1568  29.7404  30.7455  32.9317  34.0603
    34.4312

     occupation numbers 
     1.0000   1.0000   1.0000   1.0000   0.0000   0.0000   0.0000   0.0000
     0.0000   0.0000   0.0000   0.0000   0.0000   0.0000   0.0000   0.0000
     0.0000   0.0000   0.0000   0.0000   0.0000   0.0000   0.0000   0.0000
     0.0000

          k = 0.5208-0.0208 0.9375 (   259 PWs)   bands (ev):

    -1.6200  -1.0352   2.1425   2.6357  10.1151  10.8089  11.4489  11.7291
    16.4321  17.4491  19.1724  20.2307  22.2867  23.2597  24.5427  25.0346
    25.6061  25.8704  26.0455  27.0868  29.7355  30.8117  33.5549  33.8187
    34.1597

     occupation numbers 
     1.0000   1.0000   1.0000   1.0000   0.0000   0.0000   0.0000   0.0000
     0.0000   0.0000   0.0000   0.0000   0.0000   0.0000   0.0000   0.0000
     0.0000   0.0000   0.0000   0.0000   0.0000   0.0000   0.0000   0.0000
     0.0000

          k = 0.5000-0.0000 0.9167 (   259 PWs)   bands (ev):

    -1.7191  -0.9426   2.1083   2.7057  10.1719  10.7614  11.2845  11.9258
    16.2510  17.4143  19.2071  20.3815  22.1154  23.2009  24.6611  24.7622
    25.8977  26.0217  26.0417  27.0138  29.6407  30.9907  33.1586  34.1764
    34.2351

     occupation numbers 
     1.0000   1.0000   1.0000   1.0000   0.0000   0.0000   0.0000   0.0000
     0.0000   0.0000   0.0000   0.0000   0.0000   0.0000   0.0000   0.0000
     0.0000   0.0000   0.0000   0.0000   0.0000   0.0000   0.0000   0.0000
     0.0000

          k = 0.5833-0.0417 1.0000 (   256 PWs)   bands (ev):

    -1.5685  -1.0987   2.3093   2.5342   9.9085   9.9814  11.7868  12.4997
    16.6885  17.4385  19.2184  19.9282  22.5409  23.3039  24.2388  24.6755
    25.2057  25.5602  27.0639  27.3157  29.7494  30.5262  32.2010  33.3156
    35.1581

     occupation numbers 
     1.0000   1.0000   1.0000   1.0000   0.0000   0.0000   0.0000   0.0000
     0.0000   0.0000   0.0000   0.0000   0.0000   0.0000   0.0000   0.0000
     0.0000   0.0000   0.0000   0.0000   0.0000   0.0000   0.0000   0.0000
     0.0000

          k = 0.5625-0.0208 0.9792 (   260 PWs)   bands (ev):

    -1.4674  -1.1920   2.2825   2.4959   9.9936  10.3136  11.7211  12.0658
    16.8201  17.3258  19.3162  19.8338  22.6647  23.1674  24.6146  24.8264
    25.2323  25.3739  26.7196  27.1877  29.9201  30.4224  32.8190  33.3784
    35.0396

     occupation numbers 
     1.0000   1.0000   1.0000   1.0000   0.0000   0.0000   0.0000   0.0000
     0.0000   0.0000   0.0000   0.0000   0.0000   0.0000   0.0000   0.0000
     0.0000   0.0000   0.0000   0.0000   0.0000   0.0000   0.0000   0.0000
     0.0000

          k = 0.5417 0.0000 0.9583 (   260 PWs)   bands (ev):

    -1.4981  -1.1558   2.2106   2.5457  10.0523  10.6512  11.6812  11.6884
    16.7081  17.3541  19.2766  19.9655  22.5600  23.1672  24.6293  25.0565
    25.4041  25.4755  26.3080  27.1397  29.8921  30.5452  33.4203  33.5236
    34.4680

     occupation numbers 
     1.0000   1.0000   1.0000   1.0000   0.0000   0.0000   0.0000   0.0000
     0.0000   0.0000   0.0000   0.0000   0.0000   0.0000   0.0000   0.0000
     0.0000   0.0000   0.0000   0.0000   0.0000   0.0000   0.0000   0.0000
     0.0000

          k =-0.4167-1.0000 0.0000 (   258 PWs)   bands (ev):

    -1.3332  -1.3331   2.4074   2.4074   9.9358   9.9358  12.1334  12.1334
    17.1023  17.1024  19.5432  19.5432  22.9696  22.9696  24.6701  24.6701
    25.0905  25.0906  27.2121  27.2121  30.1049  30.1049  32.7290  32.7290
    35.4857

     occupation numbers 
     1.0000   1.0000   1.0000   1.0000   0.0000   0.0000   0.0000   0.0000
     0.0000   0.0000   0.0000   0.0000   0.0000   0.0000   0.0000   0.0000
     0.0000   0.0000   0.0000   0.0000   0.0000   0.0000   0.0000   0.0000
     0.0000

          k = 0.5417-0.0833 1.0000 (   259 PWs)   bands (ev):

    -1.7636  -0.9025   2.1592   2.6838  10.3312  10.3460  11.1272  12.3660
    16.2449  17.4916  19.1483  20.3463  22.0831  23.2655  24.3069  24.6702
    26.0411  26.0577  26.3549  26.9554  29.5945  31.0079  32.4349  34.4993
    34.6937

     occupation numbers 
     1.0000   1.0000   1.0000   1.0000   0.0000   0.0000   0.0000   0.0000
     0.0000   0.0000   0.0000   0.0000   0.0000   0.0000   0.0000   0.0000
     0.0000   0.0000   0.0000   0.0000   0.0000   0.0000   0.0000   0.0000
     0.0000

          k = 0.5208-0.0625 0.9792 (   259 PWs)   bands (ev):

    -1.6468  -1.0093   2.1661   2.6132  10.3424  10.5833  11.2139  11.9629
    16.4264  17.4976  19.1394  20.2164  22.2551  23.2952  24.5293  24.8179
    25.7498  25.9670  26.2379  26.8690  29.7199  30.8586  33.0354  34.2974
    34.6901

     occupation numbers 
     1.0000   1.0000   1.0000   1.0000   0.0000   0.0000   0.0000   0.0000
     0.0000   0.0000   0.0000   0.0000   0.0000   0.0000   0.0000   0.0000
     0.0000   0.0000   0.0000   0.0000   0.0000   0.0000   0.0000   0.0000
     0.0000

          k = 0.5000-0.0417 0.9583 (   258 PWs)   bands (ev):

    -1.5970  -1.0529   2.1703   2.5878  10.3464  10.6644  11.3511  11.7194
    16.4913  17.5009  19.1321  20.1725  22.3175  23.3155  24.4895  25.1148
    25.5340  25.8806  26.2258  26.8561  29.7795  30.7940  33.6007  33.7581
    34.7861

     occupation numbers 
     1.0000   1.0000   1.0000   1.0000   0.0000   0.0000   0.0000   0.0000
     0.0000   0.0000   0.0000   0.0000   0.0000   0.0000   0.0000   0.0000
     0.0000   0.0000   0.0000   0.0000   0.0000   0.0000   0.0000   0.0000
     0.0000

          k = 0.5417-0.0417 1.0000 (   258 PWs)   bands (ev):

    -1.5411  -1.1095   2.2480   2.5100  10.3500  10.3600  11.3657  12.0035
    16.6957  17.4121  19.2455  19.9507  22.5134  23.2260  24.6504  24.7560
    25.5103  25.6662  26.5530  26.8847  29.8603  30.6203  32.9183  34.0439
    34.8234

     occupation numbers 
     1.0000   1.0000   1.0000   1.0000   0.0000   0.0000   0.0000   0.0000
     0.0000   0.0000   0.0000   0.0000   0.0000   0.0000   0.0000   0.0000
     0.0000   0.0000   0.0000   0.0000   0.0000   0.0000   0.0000   0.0000
     0.0000

          k = 0.5208-0.0208 0.9792 (   260 PWs)   bands (ev):

    -1.4614  -1.1859   2.2550   2.4663  10.3886  10.6324  11.3735  11.6419
    16.8222  17.3286  19.3245  19.8454  22.6339  23.1304  24.6898  25.1774
    25.3090  25.6686  26.3333  26.7529  29.9953  30.5110  33.5552  34.1146
    34.3507

     occupation numbers 
     1.0000   1.0000   1.0000   1.0000   0.0000   0.0000   0.0000   0.0000
     0.0000   0.0000   0.0000   0.0000   0.0000   0.0000   0.0000   0.0000
     0.0000   0.0000   0.0000   0.0000   0.0000   0.0000   0.0000   0.0000
     0.0000

          k = 0.5000 0.0000 0.9583 (   261 PWs)   bands (ev):

    -1.5191  -1.1302   2.2142   2.5138  10.4077  10.7011  11.3035  11.6285
    16.6996  17.3851  19.2633  19.9631  22.5147  23.1778  24.6420  25.1295
    25.4645  25.8086  26.1873  26.7485  29.9090  30.6274  33.6579  34.2212
    34.2324

     occupation numbers 
     1.0000   1.0000   1.0000   1.0000   0.0000   0.0000   0.0000   0.0000
     0.0000   0.0000   0.0000   0.0000   0.0000   0.0000   0.0000   0.0000
     0.0000   0.0000   0.0000   0.0000   0.0000   0.0000   0.0000   0.0000
     0.0000

          k =-0.4583-1.0000 0.0000 (   262 PWs)   bands (ev):

    -1.3255  -1.3255   2.3640   2.3640  10.3539  10.3539  11.6627  11.6627
    17.0999  17.0999  19.5569  19.5569  22.9138  22.9138  24.9281  24.9281
    25.2794  25.2794  26.7291  26.7292  30.2105  30.2105  33.4558  33.4558
    34.9936

     occupation numbers 
     1.0000   1.0000   1.0000   1.0000   0.0000   0.0000   0.0000   0.0000
     0.0000   0.0000   0.0000   0.0000   0.0000   0.0000   0.0000   0.0000
     0.0000   0.0000   0.0000   0.0000   0.0000   0.0000   0.0000   0.0000
     0.0000

          k =-0.5000-1.0000 0.0000 (   264 PWs)   bands (ev):

    -1.3247  -1.3246   2.3493   2.3493  10.5893  10.5894  11.4107  11.4108
    17.1004  17.1004  19.5608  19.5608  22.8952  22.8952  24.9452  24.9453
    25.5124  25.5124  26.4556  26.4556  30.2490  30.2490  34.1336  34.1336
    34.3043

     occupation numbers 
     1.0000   1.0000   1.0000   1.0000   0.0000   0.0000   0.0000   0.0000
     0.0000   0.0000   0.0000   0.0000   0.0000   0.0000   0.0000   0.0000
     0.0000   0.0000   0.0000   0.0000   0.0000   0.0000   0.0000   0.0000
     0.0000

     highest occupied, lowest unoccupied level (ev):     6.3571    6.8352

     Writing output data file run_output/Si.save/

     init_run     :      0.64s CPU      0.72s WALL (       1 calls)
     electrons    :     98.00s CPU    100.87s WALL (       1 calls)

     Called by init_run:
     wfcinit      :      0.00s CPU      0.01s WALL (       1 calls)
     wfcinit:atom :      0.02s CPU      0.02s WALL (    2769 calls)
     wfcinit:wfcr :      6.56s CPU      6.85s WALL (    2769 calls)
     potinit      :      0.29s CPU      0.29s WALL (       1 calls)
     hinit0       :      0.00s CPU      0.01s WALL (       1 calls)

     Called by electrons:
     c_bands      :     97.84s CPU    100.65s WALL (       1 calls)
     v_of_rho     :      0.00s CPU      0.00s WALL (       1 calls)
     v_h          :      0.00s CPU      0.00s WALL (       1 calls)
     v_xc         :      0.00s CPU      0.00s WALL (       1 calls)

     Called by c_bands:
     init_us_2    :      0.02s CPU      0.02s WALL (    2769 calls)
     cegterg      :     88.60s CPU     90.82s WALL (    2826 calls)

     Called by sum_band:

     Called by *egterg:
     cdiaghg      :     36.60s CPU     36.70s WALL (   44020 calls)
     cegterg:over :      8.74s CPU      8.70s WALL (   41251 calls)
     cegterg:upda :      0.46s CPU      0.45s WALL (   41251 calls)
     cegterg:last :      0.75s CPU      0.79s WALL (   22389 calls)
     h_psi        :     44.54s CPU     46.81s WALL (   46846 calls)
     g_psi        :      0.03s CPU      0.05s WALL (   41251 calls)

     Called by h_psi:
     h_psi:calbec :      1.83s CPU      1.90s WALL (   46846 calls)
     vloc_psi     :     42.46s CPU     44.56s WALL (   46846 calls)
     add_vuspsi   :      0.15s CPU      0.19s WALL (   46846 calls)

     General routines
     calbec       :      1.81s CPU      1.85s WALL (   46846 calls)
     fft          :      0.00s CPU      0.01s WALL (       3 calls)
     fftw         :     41.84s CPU     43.56s WALL ( 1255482 calls)
     davcio       :      0.01s CPU      0.17s WALL (    5538 calls)

     Parallel routines
     fft_scatt_xy :      0.69s CPU      1.16s WALL ( 1255485 calls)
     fft_scatt_yz :     35.73s CPU     35.09s WALL ( 1255485 calls)

     PWSCF        :   2m20.02s CPU   2m31.83s WALL


   This run was terminated on:  10:20: 9  19Mar2021            

=------------------------------------------------------------------------------=
   JOB DONE.
=------------------------------------------------------------------------------=
