
     Program PWSCF v.6.7MaX starts on  6May2021 at 19:20:25 

     This program is part of the open-source Quantum ESPRESSO suite
     for quantum simulation of materials; please cite
         "P. Giannozzi et al., J. Phys.:Condens. Matter 21 395502 (2009);
         "P. Giannozzi et al., J. Phys.:Condens. Matter 29 465901 (2017);
          URL http://www.quantum-espresso.org", 
     in publications or presentations arising from this work. More details at
     http://www.quantum-espresso.org/quote

     Parallel version (MPI), running on    56 processors

     MPI processes distributed on     2 nodes
     R & G space division:  proc/nbgrp/npool/nimage =      56
     Waiting for input...
     Reading input from standard input

     Current dimensions of program PWSCF are:
     Max number of different atomic species (ntypx) = 10
     Max number of k-points (npk) =  40000
     Max angular momentum in pseudopotentials (lmaxx) =  3

     Atomic positions and unit cell read from directory:
     run_output/MoS2.save/
     Atomic positions from file used, from input discarded


     Subspace diagonalization in iterative solution of the eigenvalue problem:
     a serial algorithm will be used


     Parallelization info
     --------------------
     sticks:   dense  smooth     PW     G-vecs:    dense   smooth      PW
     Min          10      10      2                 1006     1006     134
     Max          12      12      3                 1018     1018     177
     Sum         583     583    163                56613    56613    9123



     bravais-lattice index     =            4
     lattice parameter (alat)  =       5.8772  a.u.
     unit-cell volume          =     897.4163 (a.u.)^3
     number of atoms/cell      =            3
     number of atomic types    =            2
     number of electrons       =        26.00
     number of Kohn-Sham states=           50
     kinetic-energy cutoff     =      60.0000  Ry
     charge density cutoff     =     240.0000  Ry
     Exchange-correlation= SLA-PZ-NOGX-NOGC
                           (   1   1   0   0   0   0   0)

     celldm(1)=   5.877208  celldm(2)=   0.000000  celldm(3)=   5.104465
     celldm(4)=   0.000000  celldm(5)=   0.000000  celldm(6)=   0.000000

     crystal axes: (cart. coord. in units of alat)
               a(1) = (   1.000000   0.000000   0.000000 )  
               a(2) = (  -0.500000   0.866025   0.000000 )  
               a(3) = (   0.000000   0.000000   5.104465 )  

     reciprocal axes: (cart. coord. in units 2 pi/alat)
               b(1) = (  1.000000  0.577350 -0.000000 )  
               b(2) = (  0.000000  1.154701  0.000000 )  
               b(3) = (  0.000000 -0.000000  0.195907 )  


     PseudoPot. # 1 for Mo read from file:
     PPs/Mo_SR_withPS_PZ.UPF
     MD5 check sum: 19bf02b7f08077cf8574869525df176e
     Pseudo is Norm-conserving + core correction, Zval = 14.0
     Generated using "atomic" code by A. Dal Corso  (Quantum ESPRESSO distribution)
     Using radial grid of 1229 points,  5 beta functions with: 
                l(1) =   0
                l(2) =   0
                l(3) =   1
                l(4) =   2
                l(5) =   2

     PseudoPot. # 2 for S  read from file:
     PPs/S.pz-hgh.UPF
     MD5 check sum: fb24c143a2a3ea3aba309d3cb9e9e6ec
     Pseudo is Norm-conserving, Zval =  6.0
     Generated in analytical, separable form
     Using radial grid of 1151 points,  3 beta functions with: 
                l(1) =   0
                l(2) =   0
                l(3) =   1

     atomic species   valence    mass     pseudopotential
        Mo            14.00    95.94000     Mo( 1.00)
        S              6.00    32.06500     S ( 1.00)

     Starting magnetic structure 
     atomic species   magnetization
        Mo          -0.100
        S            0.100

     12 Sym. Ops. (no inversion) found


                                    s                        frac. trans.

      isym =  1     identity                                     

 cryst.   s( 1) = (     1          0          0      )
                  (     0          1          0      )
                  (     0          0          1      )

 cart.    s( 1) = (  1.0000000  0.0000000  0.0000000 )
                  (  0.0000000  1.0000000  0.0000000 )
                  (  0.0000000  0.0000000  1.0000000 )


      isym =  2     180 deg rotation - cart. axis [0,1,0]        

 cryst.   s( 2) = (    -1          0          0      )
                  (     1          1          0      )
                  (     0          0         -1      )

 cart.    s( 2) = ( -1.0000000  0.0000000  0.0000000 )
                  (  0.0000000  1.0000000  0.0000000 )
                  (  0.0000000  0.0000000 -1.0000000 )


      isym =  3     120 deg rotation - cryst. axis [0,0,1]       

 cryst.   s( 3) = (     0          1          0      )
                  (    -1         -1          0      )
                  (     0          0          1      )

 cart.    s( 3) = ( -0.5000000 -0.8660254  0.0000000 )
                  (  0.8660254 -0.5000000  0.0000000 )
                  (  0.0000000  0.0000000  1.0000000 )


      isym =  4     120 deg rotation - cryst. axis [0,0,-1]      

 cryst.   s( 4) = (    -1         -1          0      )
                  (     1          0          0      )
                  (     0          0          1      )

 cart.    s( 4) = ( -0.5000000  0.8660254  0.0000000 )
                  ( -0.8660254 -0.5000000  0.0000000 )
                  (  0.0000000  0.0000000  1.0000000 )


      isym =  5     180 deg rotation - cryst. axis [1,-1,0]      

 cryst.   s( 5) = (     0         -1          0      )
                  (    -1          0          0      )
                  (     0          0         -1      )

 cart.    s( 5) = (  0.5000000 -0.8660254  0.0000000 )
                  ( -0.8660254 -0.5000000  0.0000000 )
                  (  0.0000000  0.0000000 -1.0000000 )


      isym =  6     180 deg rotation - cryst. axis [2,1,0]       

 cryst.   s( 6) = (     1          1          0      )
                  (     0         -1          0      )
                  (     0          0         -1      )

 cart.    s( 6) = (  0.5000000  0.8660254  0.0000000 )
                  (  0.8660254 -0.5000000  0.0000000 )
                  (  0.0000000  0.0000000 -1.0000000 )


      isym =  7     inv. 180 deg rotation - cart. axis [0,0,1]   

 cryst.   s( 7) = (     1          0          0      )
                  (     0          1          0      )
                  (     0          0         -1      )

 cart.    s( 7) = (  1.0000000  0.0000000  0.0000000 )
                  (  0.0000000  1.0000000  0.0000000 )
                  (  0.0000000  0.0000000 -1.0000000 )


      isym =  8     inv. 180 deg rotation - cart. axis [1,0,0]   

 cryst.   s( 8) = (    -1          0          0      )
                  (     1          1          0      )
                  (     0          0          1      )

 cart.    s( 8) = ( -1.0000000  0.0000000  0.0000000 )
                  (  0.0000000  1.0000000  0.0000000 )
                  (  0.0000000  0.0000000  1.0000000 )


      isym =  9     inv.  60 deg rotation - cryst. axis [0,0,1]  

 cryst.   s( 9) = (    -1         -1          0      )
                  (     1          0          0      )
                  (     0          0         -1      )

 cart.    s( 9) = ( -0.5000000  0.8660254  0.0000000 )
                  ( -0.8660254 -0.5000000  0.0000000 )
                  (  0.0000000  0.0000000 -1.0000000 )


      isym = 10     inv.  60 deg rotation - cryst. axis [0,0,-1] 

 cryst.   s(10) = (     0          1          0      )
                  (    -1         -1          0      )
                  (     0          0         -1      )

 cart.    s(10) = ( -0.5000000 -0.8660254  0.0000000 )
                  (  0.8660254 -0.5000000  0.0000000 )
                  (  0.0000000  0.0000000 -1.0000000 )


      isym = 11     inv. 180 deg rotation - cryst. axis [0,1,0]  

 cryst.   s(11) = (     1          1          0      )
                  (     0         -1          0      )
                  (     0          0          1      )

 cart.    s(11) = (  0.5000000  0.8660254  0.0000000 )
                  (  0.8660254 -0.5000000  0.0000000 )
                  (  0.0000000  0.0000000  1.0000000 )


      isym = 12     inv. 180 deg rotation - cryst. axis [1,1,0]  

 cryst.   s(12) = (     0         -1          0      )
                  (    -1          0          0      )
                  (     0          0          1      )

 cart.    s(12) = (  0.5000000 -0.8660254  0.0000000 )
                  ( -0.8660254 -0.5000000  0.0000000 )
                  (  0.0000000  0.0000000  1.0000000 )


     point group D_3h (-62m)
     there are  6 classes
     the character table:

       E     2C3   3C2   s_h   2S3   3s_v 
A'_1   1.00  1.00  1.00  1.00  1.00  1.00
A'_2   1.00  1.00 -1.00  1.00  1.00 -1.00
E'     2.00 -1.00  0.00  2.00 -1.00  0.00
A''1   1.00  1.00  1.00 -1.00 -1.00 -1.00
A''2   1.00  1.00 -1.00 -1.00 -1.00  1.00
E''    2.00 -1.00  0.00 -2.00  1.00  0.00

     the symmetry operations in each class and the name of the first element:

     E        1
          identity                                               
     2C3      3    4
          120 deg rotation - cryst. axis [0,0,1]                 
     3C2      2    6    5
          180 deg rotation - cart. axis [0,1,0]                  
     s_h      7
          inv. 180 deg rotation - cart. axis [0,0,1]             
     2S3      9   10
          inv.  60 deg rotation - cryst. axis [0,0,1]            
     3s_v     8   11   12
          inv. 180 deg rotation - cart. axis [1,0,0]             

   Cartesian axes

     site n.     atom                  positions (alat units)
         1           Mo  tau(   1) = (  -0.0000000   0.5773503   0.0000000  )
         2           S   tau(   2) = (   0.5000000   0.2886751   0.4991315  )
         3           S   tau(   3) = (   0.5000000   0.2886751  -0.4991315  )

   Crystallographic axes

     site n.     atom                  positions (cryst. coord.)
         1           Mo  tau(   1) = (  0.3333333  0.6666667  0.0000000  )
         2           S   tau(   2) = (  0.6666667  0.3333333  0.0977833  )
         3           S   tau(   3) = (  0.6666667  0.3333333 -0.0977833  )

     number of k points=    61  Gaussian smearing, width (Ry)=  0.0017
                       cart. coord. in units 2pi/alat
        k(    1) = (   0.0000000   0.0000000   0.0000000), wk =   0.0017361
        k(    2) = (   0.0000000   0.0481125   0.0000000), wk =   0.0104167
        k(    3) = (   0.0000000   0.0962250   0.0000000), wk =   0.0104167
        k(    4) = (   0.0000000   0.1443376   0.0000000), wk =   0.0104167
        k(    5) = (   0.0000000   0.1924501   0.0000000), wk =   0.0104167
        k(    6) = (   0.0000000   0.2405626   0.0000000), wk =   0.0104167
        k(    7) = (   0.0000000   0.2886751   0.0000000), wk =   0.0104167
        k(    8) = (   0.0000000   0.3367877   0.0000000), wk =   0.0104167
        k(    9) = (   0.0000000   0.3849002   0.0000000), wk =   0.0104167
        k(   10) = (   0.0000000   0.4330127   0.0000000), wk =   0.0104167
        k(   11) = (   0.0000000   0.4811252   0.0000000), wk =   0.0104167
        k(   12) = (   0.0000000   0.5292377   0.0000000), wk =   0.0104167
        k(   13) = (   0.0000000  -0.5773503   0.0000000), wk =   0.0052083
        k(   14) = (   0.0416667   0.0721688   0.0000000), wk =   0.0104167
        k(   15) = (   0.0416667   0.1202813   0.0000000), wk =   0.0208333
        k(   16) = (   0.0416667   0.1683938   0.0000000), wk =   0.0208333
        k(   17) = (   0.0416667   0.2165064   0.0000000), wk =   0.0208333
        k(   18) = (   0.0416667   0.2646189   0.0000000), wk =   0.0208333
        k(   19) = (   0.0416667   0.3127314   0.0000000), wk =   0.0208333
        k(   20) = (   0.0416667   0.3608439   0.0000000), wk =   0.0208333
        k(   21) = (   0.0416667   0.4089564   0.0000000), wk =   0.0208333
        k(   22) = (   0.0416667   0.4570690   0.0000000), wk =   0.0208333
        k(   23) = (   0.0416667   0.5051815   0.0000000), wk =   0.0208333
        k(   24) = (   0.0416667   0.5532940   0.0000000), wk =   0.0208333
        k(   25) = (   0.0833333   0.1443376   0.0000000), wk =   0.0104167
        k(   26) = (   0.0833333   0.1924501   0.0000000), wk =   0.0208333
        k(   27) = (   0.0833333   0.2405626   0.0000000), wk =   0.0208333
        k(   28) = (   0.0833333   0.2886751   0.0000000), wk =   0.0208333
        k(   29) = (   0.0833333   0.3367877   0.0000000), wk =   0.0208333
        k(   30) = (   0.0833333   0.3849002   0.0000000), wk =   0.0208333
        k(   31) = (   0.0833333   0.4330127   0.0000000), wk =   0.0208333
        k(   32) = (   0.0833333   0.4811252   0.0000000), wk =   0.0208333
        k(   33) = (   0.0833333   0.5292377   0.0000000), wk =   0.0208333
        k(   34) = (   0.0833333   0.5773503   0.0000000), wk =   0.0104167
        k(   35) = (   0.1250000   0.2165064   0.0000000), wk =   0.0104167
        k(   36) = (   0.1250000   0.2646189   0.0000000), wk =   0.0208333
        k(   37) = (   0.1250000   0.3127314   0.0000000), wk =   0.0208333
        k(   38) = (   0.1250000   0.3608439   0.0000000), wk =   0.0208333
        k(   39) = (   0.1250000   0.4089564   0.0000000), wk =   0.0208333
        k(   40) = (   0.1250000   0.4570690   0.0000000), wk =   0.0208333
        k(   41) = (   0.1250000   0.5051815   0.0000000), wk =   0.0208333
        k(   42) = (   0.1250000   0.5532940   0.0000000), wk =   0.0208333
        k(   43) = (   0.1666667   0.2886751   0.0000000), wk =   0.0104167
        k(   44) = (   0.1666667   0.3367877   0.0000000), wk =   0.0208333
        k(   45) = (   0.1666667   0.3849002   0.0000000), wk =   0.0208333
        k(   46) = (   0.1666667   0.4330127   0.0000000), wk =   0.0208333
        k(   47) = (   0.1666667   0.4811252   0.0000000), wk =   0.0208333
        k(   48) = (   0.1666667   0.5292377   0.0000000), wk =   0.0208333
        k(   49) = (   0.1666667   0.5773503   0.0000000), wk =   0.0104167
        k(   50) = (   0.2083333   0.3608439   0.0000000), wk =   0.0104167
        k(   51) = (   0.2083333   0.4089564   0.0000000), wk =   0.0208333
        k(   52) = (   0.2083333   0.4570690   0.0000000), wk =   0.0208333
        k(   53) = (   0.2083333   0.5051815   0.0000000), wk =   0.0208333
        k(   54) = (   0.2083333   0.5532940   0.0000000), wk =   0.0208333
        k(   55) = (   0.2500000   0.4330127   0.0000000), wk =   0.0104167
        k(   56) = (   0.2500000   0.4811252   0.0000000), wk =   0.0208333
        k(   57) = (   0.2500000   0.5292377   0.0000000), wk =   0.0208333
        k(   58) = (   0.2500000   0.5773503   0.0000000), wk =   0.0104167
        k(   59) = (   0.2916667   0.5051815   0.0000000), wk =   0.0104167
        k(   60) = (   0.2916667   0.5532940   0.0000000), wk =   0.0208333
        k(   61) = (   0.3333333   0.5773503   0.0000000), wk =   0.0034722

                       cryst. coord.
        k(    1) = (   0.0000000   0.0000000   0.0000000), wk =   0.0017361
        k(    2) = (   0.0000000   0.0416667   0.0000000), wk =   0.0104167
        k(    3) = (   0.0000000   0.0833333   0.0000000), wk =   0.0104167
        k(    4) = (   0.0000000   0.1250000   0.0000000), wk =   0.0104167
        k(    5) = (   0.0000000   0.1666667   0.0000000), wk =   0.0104167
        k(    6) = (   0.0000000   0.2083333   0.0000000), wk =   0.0104167
        k(    7) = (   0.0000000   0.2500000   0.0000000), wk =   0.0104167
        k(    8) = (   0.0000000   0.2916667   0.0000000), wk =   0.0104167
        k(    9) = (   0.0000000   0.3333333   0.0000000), wk =   0.0104167
        k(   10) = (   0.0000000   0.3750000   0.0000000), wk =   0.0104167
        k(   11) = (   0.0000000   0.4166667   0.0000000), wk =   0.0104167
        k(   12) = (   0.0000000   0.4583333   0.0000000), wk =   0.0104167
        k(   13) = (   0.0000000  -0.5000000   0.0000000), wk =   0.0052083
        k(   14) = (   0.0416667   0.0416667   0.0000000), wk =   0.0104167
        k(   15) = (   0.0416667   0.0833333   0.0000000), wk =   0.0208333
        k(   16) = (   0.0416667   0.1250000   0.0000000), wk =   0.0208333
        k(   17) = (   0.0416667   0.1666667   0.0000000), wk =   0.0208333
        k(   18) = (   0.0416667   0.2083333   0.0000000), wk =   0.0208333
        k(   19) = (   0.0416667   0.2500000   0.0000000), wk =   0.0208333
        k(   20) = (   0.0416667   0.2916667   0.0000000), wk =   0.0208333
        k(   21) = (   0.0416667   0.3333333   0.0000000), wk =   0.0208333
        k(   22) = (   0.0416667   0.3750000   0.0000000), wk =   0.0208333
        k(   23) = (   0.0416667   0.4166667   0.0000000), wk =   0.0208333
        k(   24) = (   0.0416667   0.4583333   0.0000000), wk =   0.0208333
        k(   25) = (   0.0833333   0.0833333   0.0000000), wk =   0.0104167
        k(   26) = (   0.0833333   0.1250000   0.0000000), wk =   0.0208333
        k(   27) = (   0.0833333   0.1666667   0.0000000), wk =   0.0208333
        k(   28) = (   0.0833333   0.2083333   0.0000000), wk =   0.0208333
        k(   29) = (   0.0833333   0.2500000   0.0000000), wk =   0.0208333
        k(   30) = (   0.0833333   0.2916667   0.0000000), wk =   0.0208333
        k(   31) = (   0.0833333   0.3333333   0.0000000), wk =   0.0208333
        k(   32) = (   0.0833333   0.3750000   0.0000000), wk =   0.0208333
        k(   33) = (   0.0833333   0.4166667   0.0000000), wk =   0.0208333
        k(   34) = (   0.0833333   0.4583333   0.0000000), wk =   0.0104167
        k(   35) = (   0.1250000   0.1250000   0.0000000), wk =   0.0104167
        k(   36) = (   0.1250000   0.1666667   0.0000000), wk =   0.0208333
        k(   37) = (   0.1250000   0.2083333   0.0000000), wk =   0.0208333
        k(   38) = (   0.1250000   0.2500000   0.0000000), wk =   0.0208333
        k(   39) = (   0.1250000   0.2916667   0.0000000), wk =   0.0208333
        k(   40) = (   0.1250000   0.3333333   0.0000000), wk =   0.0208333
        k(   41) = (   0.1250000   0.3750000   0.0000000), wk =   0.0208333
        k(   42) = (   0.1250000   0.4166667   0.0000000), wk =   0.0208333
        k(   43) = (   0.1666667   0.1666667   0.0000000), wk =   0.0104167
        k(   44) = (   0.1666667   0.2083333   0.0000000), wk =   0.0208333
        k(   45) = (   0.1666667   0.2500000   0.0000000), wk =   0.0208333
        k(   46) = (   0.1666667   0.2916667   0.0000000), wk =   0.0208333
        k(   47) = (   0.1666667   0.3333333   0.0000000), wk =   0.0208333
        k(   48) = (   0.1666667   0.3750000   0.0000000), wk =   0.0208333
        k(   49) = (   0.1666667   0.4166667   0.0000000), wk =   0.0104167
        k(   50) = (   0.2083333   0.2083333   0.0000000), wk =   0.0104167
        k(   51) = (   0.2083333   0.2500000   0.0000000), wk =   0.0208333
        k(   52) = (   0.2083333   0.2916667   0.0000000), wk =   0.0208333
        k(   53) = (   0.2083333   0.3333333   0.0000000), wk =   0.0208333
        k(   54) = (   0.2083333   0.3750000   0.0000000), wk =   0.0208333
        k(   55) = (   0.2500000   0.2500000   0.0000000), wk =   0.0104167
        k(   56) = (   0.2500000   0.2916667   0.0000000), wk =   0.0208333
        k(   57) = (   0.2500000   0.3333333   0.0000000), wk =   0.0208333
        k(   58) = (   0.2500000   0.3750000   0.0000000), wk =   0.0104167
        k(   59) = (   0.2916667   0.2916667   0.0000000), wk =   0.0104167
        k(   60) = (   0.2916667   0.3333333   0.0000000), wk =   0.0208333
        k(   61) = (   0.3333333   0.3333333   0.0000000), wk =   0.0034722

     Dense  grid:    56613 G-vectors     FFT dimensions: (  30,  30, 150)

     Dynamical RAM for                 wfc:       0.10 MB

     Dynamical RAM for     wfc (w. buffer):       0.10 MB

     Dynamical RAM for           str. fact:       0.03 MB

     Dynamical RAM for           local pot:       0.00 MB

     Dynamical RAM for          nlocal pot:       0.05 MB

     Dynamical RAM for                qrad:       1.78 MB

     Dynamical RAM for          rho,v,vnew:       0.22 MB

     Dynamical RAM for           G-vectors:       0.07 MB

     Dynamical RAM for          h,s,v(r/c):       1.83 MB

     Dynamical RAM for          <psi|beta>:       0.02 MB

     Dynamical RAM for                 psi:       0.38 MB

     Dynamical RAM for                hpsi:       0.38 MB

     Dynamical RAM for      wfcinit/wfcrot:       0.25 MB

     Estimated static dynamical RAM per process >       2.40 MB

     Estimated max dynamical RAM per process >       5.02 MB

     Estimated total dynamical RAM >     280.96 MB

     Check: negative core charge=   -0.000110
     Generating pointlists ...
     new r_m :   0.3148 (alat units)  1.8502 (a.u.) for type    1
     new r_m :   0.3148 (alat units)  1.8502 (a.u.) for type    2

     The potential is recalculated from file :
     run_output/MoS2.save/charge-density

     Starting wfcs are   28 randomized atomic wfcs +   22 random wfcs

     Band Structure Calculation
     Davidson diagonalization with overlap

     Computing kpt #:     1  of   122
     total cpu time spent up to now is        6.3 secs

     Computing kpt #:     2  of   122
     total cpu time spent up to now is        6.6 secs

     Computing kpt #:     3  of   122
     total cpu time spent up to now is        7.0 secs

     Computing kpt #:     4  of   122
     total cpu time spent up to now is        7.3 secs

     Computing kpt #:     5  of   122
     total cpu time spent up to now is        7.6 secs

     Computing kpt #:     6  of   122
     total cpu time spent up to now is        7.9 secs

     Computing kpt #:     7  of   122
     total cpu time spent up to now is        8.2 secs

     Computing kpt #:     8  of   122
     total cpu time spent up to now is        8.5 secs

     Computing kpt #:     9  of   122
     total cpu time spent up to now is        8.9 secs

     Computing kpt #:    10  of   122
     total cpu time spent up to now is        9.2 secs

     Computing kpt #:    11  of   122
     total cpu time spent up to now is        9.5 secs

     Computing kpt #:    12  of   122
     total cpu time spent up to now is        9.8 secs

     Computing kpt #:    13  of   122
     total cpu time spent up to now is       10.1 secs

     Computing kpt #:    14  of   122
     total cpu time spent up to now is       10.4 secs

     Computing kpt #:    15  of   122
     total cpu time spent up to now is       10.7 secs

     Computing kpt #:    16  of   122
     total cpu time spent up to now is       11.0 secs

     Computing kpt #:    17  of   122
     total cpu time spent up to now is       11.3 secs

     Computing kpt #:    18  of   122
     total cpu time spent up to now is       11.6 secs

     Computing kpt #:    19  of   122
     total cpu time spent up to now is       11.9 secs

     Computing kpt #:    20  of   122
     total cpu time spent up to now is       12.3 secs

     Computing kpt #:    21  of   122
     total cpu time spent up to now is       12.6 secs

     Computing kpt #:    22  of   122
     total cpu time spent up to now is       12.9 secs

     Computing kpt #:    23  of   122
     total cpu time spent up to now is       13.2 secs

     Computing kpt #:    24  of   122
     total cpu time spent up to now is       13.5 secs

     Computing kpt #:    25  of   122
     total cpu time spent up to now is       13.8 secs

     Computing kpt #:    26  of   122
     total cpu time spent up to now is       14.1 secs

     Computing kpt #:    27  of   122
     total cpu time spent up to now is       14.4 secs

     Computing kpt #:    28  of   122
     total cpu time spent up to now is       14.7 secs

     Computing kpt #:    29  of   122
     total cpu time spent up to now is       15.1 secs

     Computing kpt #:    30  of   122
     total cpu time spent up to now is       15.4 secs

     Computing kpt #:    31  of   122
     total cpu time spent up to now is       15.7 secs

     Computing kpt #:    32  of   122
     total cpu time spent up to now is       16.0 secs

     Computing kpt #:    33  of   122
     total cpu time spent up to now is       16.3 secs

     Computing kpt #:    34  of   122
     total cpu time spent up to now is       16.6 secs

     Computing kpt #:    35  of   122
     total cpu time spent up to now is       16.9 secs

     Computing kpt #:    36  of   122
     total cpu time spent up to now is       17.2 secs

     Computing kpt #:    37  of   122
     total cpu time spent up to now is       17.6 secs

     Computing kpt #:    38  of   122
     total cpu time spent up to now is       17.9 secs

     Computing kpt #:    39  of   122
     total cpu time spent up to now is       18.2 secs

     Computing kpt #:    40  of   122
     total cpu time spent up to now is       18.5 secs

     Computing kpt #:    41  of   122
     total cpu time spent up to now is       18.8 secs

     Computing kpt #:    42  of   122
     total cpu time spent up to now is       19.1 secs

     Computing kpt #:    43  of   122
     total cpu time spent up to now is       19.4 secs

     Computing kpt #:    44  of   122
     total cpu time spent up to now is       19.7 secs

     Computing kpt #:    45  of   122
     total cpu time spent up to now is       20.0 secs

     Computing kpt #:    46  of   122
     total cpu time spent up to now is       20.3 secs

     Computing kpt #:    47  of   122
     total cpu time spent up to now is       20.7 secs

     Computing kpt #:    48  of   122
     total cpu time spent up to now is       21.0 secs

     Computing kpt #:    49  of   122
     total cpu time spent up to now is       21.3 secs

     Computing kpt #:    50  of   122
     total cpu time spent up to now is       21.6 secs

     Computing kpt #:    51  of   122
     total cpu time spent up to now is       21.9 secs

     Computing kpt #:    52  of   122
     total cpu time spent up to now is       22.2 secs

     Computing kpt #:    53  of   122
     total cpu time spent up to now is       22.6 secs

     Computing kpt #:    54  of   122
     total cpu time spent up to now is       23.0 secs

     Computing kpt #:    55  of   122
     total cpu time spent up to now is       23.3 secs

     Computing kpt #:    56  of   122
     total cpu time spent up to now is       23.6 secs

     Computing kpt #:    57  of   122
     total cpu time spent up to now is       23.9 secs

     Computing kpt #:    58  of   122
     total cpu time spent up to now is       24.2 secs

     Computing kpt #:    59  of   122
     total cpu time spent up to now is       24.6 secs

     Computing kpt #:    60  of   122
     total cpu time spent up to now is       24.9 secs

     Computing kpt #:    61  of   122
     total cpu time spent up to now is       25.2 secs

     Computing kpt #:    62  of   122
     total cpu time spent up to now is       25.6 secs

     Computing kpt #:    63  of   122
     total cpu time spent up to now is       26.0 secs

     Computing kpt #:    64  of   122
     total cpu time spent up to now is       26.3 secs

     Computing kpt #:    65  of   122
     total cpu time spent up to now is       26.6 secs

     Computing kpt #:    66  of   122
     total cpu time spent up to now is       26.9 secs

     Computing kpt #:    67  of   122
     total cpu time spent up to now is       27.2 secs

     Computing kpt #:    68  of   122
     total cpu time spent up to now is       27.5 secs

     Computing kpt #:    69  of   122
     total cpu time spent up to now is       27.9 secs

     Computing kpt #:    70  of   122
     total cpu time spent up to now is       28.2 secs

     Computing kpt #:    71  of   122
     total cpu time spent up to now is       28.5 secs

     Computing kpt #:    72  of   122
     total cpu time spent up to now is       28.8 secs

     Computing kpt #:    73  of   122
     total cpu time spent up to now is       29.1 secs

     Computing kpt #:    74  of   122
     total cpu time spent up to now is       29.4 secs

     Computing kpt #:    75  of   122
     total cpu time spent up to now is       29.7 secs

     Computing kpt #:    76  of   122
     total cpu time spent up to now is       30.1 secs

     Computing kpt #:    77  of   122
     total cpu time spent up to now is       30.4 secs

     Computing kpt #:    78  of   122
     total cpu time spent up to now is       30.7 secs

     Computing kpt #:    79  of   122
     total cpu time spent up to now is       31.1 secs

     Computing kpt #:    80  of   122
     total cpu time spent up to now is       31.4 secs

     Computing kpt #:    81  of   122
     total cpu time spent up to now is       31.7 secs

     Computing kpt #:    82  of   122
     total cpu time spent up to now is       32.0 secs

     Computing kpt #:    83  of   122
     total cpu time spent up to now is       32.3 secs

     Computing kpt #:    84  of   122
     total cpu time spent up to now is       32.6 secs

     Computing kpt #:    85  of   122
     total cpu time spent up to now is       32.9 secs

     Computing kpt #:    86  of   122
     total cpu time spent up to now is       33.2 secs

     Computing kpt #:    87  of   122
     total cpu time spent up to now is       33.6 secs

     Computing kpt #:    88  of   122
     total cpu time spent up to now is       33.9 secs

     Computing kpt #:    89  of   122
     total cpu time spent up to now is       34.2 secs

     Computing kpt #:    90  of   122
     total cpu time spent up to now is       34.5 secs

     Computing kpt #:    91  of   122
     total cpu time spent up to now is       34.8 secs

     Computing kpt #:    92  of   122
     total cpu time spent up to now is       35.1 secs

     Computing kpt #:    93  of   122
     total cpu time spent up to now is       35.5 secs

     Computing kpt #:    94  of   122
     total cpu time spent up to now is       35.8 secs

     Computing kpt #:    95  of   122
     total cpu time spent up to now is       36.1 secs

     Computing kpt #:    96  of   122
     total cpu time spent up to now is       36.4 secs

     Computing kpt #:    97  of   122
     total cpu time spent up to now is       36.7 secs

     Computing kpt #:    98  of   122
     total cpu time spent up to now is       37.0 secs

     Computing kpt #:    99  of   122
     total cpu time spent up to now is       37.3 secs

     Computing kpt #:   100  of   122
     total cpu time spent up to now is       37.6 secs

     Computing kpt #:   101  of   122
     total cpu time spent up to now is       37.9 secs

     Computing kpt #:   102  of   122
     total cpu time spent up to now is       38.2 secs

     Computing kpt #:   103  of   122
     total cpu time spent up to now is       43.9 secs

     Computing kpt #:   104  of   122
     total cpu time spent up to now is       44.2 secs

     Computing kpt #:   105  of   122
     total cpu time spent up to now is       44.5 secs

     Computing kpt #:   106  of   122
     total cpu time spent up to now is       44.9 secs

     Computing kpt #:   107  of   122
     total cpu time spent up to now is       45.2 secs

     Computing kpt #:   108  of   122
     total cpu time spent up to now is       45.5 secs

     Computing kpt #:   109  of   122
     total cpu time spent up to now is       45.8 secs

     Computing kpt #:   110  of   122
     total cpu time spent up to now is       46.1 secs

     Computing kpt #:   111  of   122
     total cpu time spent up to now is       46.4 secs

     Computing kpt #:   112  of   122
     total cpu time spent up to now is       46.8 secs

     Computing kpt #:   113  of   122
     total cpu time spent up to now is       47.1 secs

     Computing kpt #:   114  of   122
     total cpu time spent up to now is       47.4 secs

     Computing kpt #:   115  of   122
     total cpu time spent up to now is       47.7 secs

     Computing kpt #:   116  of   122
     total cpu time spent up to now is       48.0 secs

     Computing kpt #:   117  of   122
     total cpu time spent up to now is       48.3 secs

     Computing kpt #:   118  of   122
     total cpu time spent up to now is       48.6 secs

     Computing kpt #:   119  of   122
     total cpu time spent up to now is       49.0 secs

     Computing kpt #:   120  of   122
     total cpu time spent up to now is       49.3 secs

     Computing kpt #:   121  of   122
     total cpu time spent up to now is       49.6 secs

     Computing kpt #:   122  of   122
     total cpu time spent up to now is       49.9 secs

     ethr =  5.00E-06,  avg # of iterations = 13.9

     total cpu time spent up to now is       49.9 secs

     End of band structure calculation

 ------ SPIN UP ------------


          k = 0.0000 0.0000 0.0000 (  7087 PWs)   bands (ev):

   -59.9065 -34.4628 -34.0544 -34.0544 -13.9408 -12.5655  -5.4748  -2.2081
    -2.2081  -1.5613  -1.0636  -1.0636   0.2317   3.3550   3.3550   3.6498
     3.6498   5.1016   5.7676   6.6081   7.1381   8.6593   9.5525  10.4457
    11.2625  11.2625  13.2807  13.2807  13.4449  13.5244  15.4461  16.6861
    16.6861  16.6955  17.1135  17.1135  18.9608  19.6603  20.5579  21.2825
    23.8326  23.8326  25.3117  25.3140  25.3140  25.6271  25.7105  25.7105
    25.7223  26.0408

     occupation numbers 
     1.0000   1.0000   1.0000   1.0000   1.0000   1.0000   1.0000   1.0000
     1.0000   1.0000   1.0000   1.0000   1.0000   0.0000   0.0000   0.0000
     0.0000   0.0000   0.0000   0.0000   0.0000   0.0000   0.0000   0.0000
     0.0000   0.0000   0.0000   0.0000   0.0000   0.0000   0.0000   0.0000
     0.0000   0.0000   0.0000   0.0000   0.0000   0.0000   0.0000   0.0000
     0.0000   0.0000   0.0000   0.0000   0.0000   0.0000   0.0000   0.0000
     0.0000   0.0000

          k = 0.0000 0.0481 0.0000 (  7065 PWs)   bands (ev):

   -59.9042 -34.4611 -34.0626 -34.0560 -13.9121 -12.5538  -5.4423  -2.2731
    -2.1780  -1.7193  -1.1110  -0.9464   0.2251   3.3077   3.4073   3.5533
     3.6161   5.1435   5.8037   6.6936   7.2316   8.6912   9.6845  10.4529
    11.2093  11.3528  13.0259  13.2877  13.4521  13.5639  15.4475  16.4700
    16.7395  17.0057  17.0152  17.1057  19.0633  19.7546  20.7933  21.2720
    23.5803  23.8956  24.1292  24.3029  24.9343  25.0223  25.1284  25.2936
    25.6181  25.9880

     occupation numbers 
     1.0000   1.0000   1.0000   1.0000   1.0000   1.0000   1.0000   1.0000
     1.0000   1.0000   1.0000   1.0000   1.0000   0.0000   0.0000   0.0000
     0.0000   0.0000   0.0000   0.0000   0.0000   0.0000   0.0000   0.0000
     0.0000   0.0000   0.0000   0.0000   0.0000   0.0000   0.0000   0.0000
     0.0000   0.0000   0.0000   0.0000   0.0000   0.0000   0.0000   0.0000
     0.0000   0.0000   0.0000   0.0000   0.0000   0.0000   0.0000   0.0000
     0.0000   0.0000

          k = 0.0000 0.0962 0.0000 (  7065 PWs)   bands (ev):

   -59.9015 -34.4559 -34.0878 -34.0618 -13.8269 -12.5193  -5.3483  -2.4541
    -2.0894  -2.0184  -1.2434  -0.7791   0.1989   3.2022   3.3113   3.5221
     3.5521   5.2611   5.9109   6.8840   7.5377   8.7846  10.0367  10.4420
    11.1132  11.6155  12.4781  13.3159  13.4251  13.6456  15.4467  16.0051
    16.7387  16.8902  17.0994  17.7307  19.3641  19.9563  21.2312  21.4111
    22.5066  22.7208  23.5255  23.8882  24.1237  24.3471  24.3857  24.6616
    24.7462  25.4204

     occupation numbers 
     1.0000   1.0000   1.0000   1.0000   1.0000   1.0000   1.0000   1.0000
     1.0000   1.0000   1.0000   1.0000   1.0000   0.0000   0.0000   0.0000
     0.0000   0.0000   0.0000   0.0000   0.0000   0.0000   0.0000   0.0000
     0.0000   0.0000   0.0000   0.0000   0.0000   0.0000   0.0000   0.0000
     0.0000   0.0000   0.0000   0.0000   0.0000   0.0000   0.0000   0.0000
     0.0000   0.0000   0.0000   0.0000   0.0000   0.0000   0.0000   0.0000
     0.0000   0.0000

          k = 0.0000 0.1443 0.0000 (  7047 PWs)   bands (ev):

   -59.8961 -34.4478 -34.1274 -34.0704 -13.6885 -12.4632  -5.2043  -2.7152
    -2.3523  -1.9470  -1.4367  -0.6878   0.1339   3.0198   3.1198   3.3865
     3.7602   5.4451   6.0869   7.0986   8.0456   8.9314  10.3504  10.4595
    11.0970  11.9402  12.0285  13.2880  13.3854  13.7394  15.4157  15.5257
    16.3294  17.1148  17.1501  18.6233  19.8232  20.2297  20.8360  21.3114
    21.4085  22.1914  22.7775  23.3740  23.4269  23.4496  23.7855  24.0853
    24.4369  24.6229

     occupation numbers 
     1.0000   1.0000   1.0000   1.0000   1.0000   1.0000   1.0000   1.0000
     1.0000   1.0000   1.0000   1.0000   1.0000   0.0000   0.0000   0.0000
     0.0000   0.0000   0.0000   0.0000   0.0000   0.0000   0.0000   0.0000
     0.0000   0.0000   0.0000   0.0000   0.0000   0.0000   0.0000   0.0000
     0.0000   0.0000   0.0000   0.0000   0.0000   0.0000   0.0000   0.0000
     0.0000   0.0000   0.0000   0.0000   0.0000   0.0000   0.0000   0.0000
     0.0000   0.0000

          k = 0.0000 0.1925 0.0000 (  7045 PWs)   bands (ev):

   -59.8904 -34.4374 -34.1787 -34.0821 -13.5023 -12.3878  -5.0349  -3.0086
    -2.6984  -1.7594  -1.6637  -0.7051   0.0069   2.7699   3.1296   3.2330
     3.9971   5.6928   6.3276   7.3284   8.6339   9.1099  10.2234  10.5479
    11.1732  11.8437  12.5574  13.0471  13.5187  13.7743  15.2332  15.3088
    15.8408  17.3122  17.3815  19.4696  19.4919  19.8872  20.3959  20.7898
    20.9495  21.9286  22.1698  22.8408  22.8637  23.0438  23.2827  23.7292
    24.0497  24.1445

     occupation numbers 
     1.0000   1.0000   1.0000   1.0000   1.0000   1.0000   1.0000   1.0000
     1.0000   1.0000   1.0000   1.0000   1.0000   0.0000   0.0000   0.0000
     0.0000   0.0000   0.0000   0.0000   0.0000   0.0000   0.0000   0.0000
     0.0000   0.0000   0.0000   0.0000   0.0000   0.0000   0.0000   0.0000
     0.0000   0.0000   0.0000   0.0000   0.0000   0.0000   0.0000   0.0000
     0.0000   0.0000   0.0000   0.0000   0.0000   0.0000   0.0000   0.0000
     0.0000   0.0000

          k = 0.0000 0.2406 0.0000 (  7035 PWs)   bands (ev):

   -59.8833 -34.4256 -34.2374 -34.0956 -13.2759 -12.2966  -4.8857  -3.2780
    -3.0484  -1.9010  -1.5387  -0.8176  -0.1875   2.6236   3.0854   3.2515
     4.2326   6.0032   6.6266   7.5750   9.0726   9.2478  10.2021  10.2486
    11.2979  12.2099  12.8194  13.1420  13.7347  13.7406  15.1221  15.2665
    15.3430  17.5609  17.6591  18.1671  18.6363  19.8692  20.1450  20.7969
    21.0260  21.6581  21.8899  22.2785  22.4641  22.7098  22.8476  23.3897
    23.4989  24.2186

     occupation numbers 
     1.0000   1.0000   1.0000   1.0000   1.0000   1.0000   1.0000   1.0000
     1.0000   1.0000   1.0000   1.0000   1.0000   0.0000   0.0000   0.0000
     0.0000   0.0000   0.0000   0.0000   0.0000   0.0000   0.0000   0.0000
     0.0000   0.0000   0.0000   0.0000   0.0000   0.0000   0.0000   0.0000
     0.0000   0.0000   0.0000   0.0000   0.0000   0.0000   0.0000   0.0000
     0.0000   0.0000   0.0000   0.0000   0.0000   0.0000   0.0000   0.0000
     0.0000   0.0000

          k = 0.0000 0.2887 0.0000 (  7009 PWs)   bands (ev):

   -59.8747 -34.4125 -34.2998 -34.1099 -13.0194 -12.1940  -4.8279  -3.4616
    -3.3958  -2.1310  -1.3011  -0.9830  -0.4113   2.5980   2.9648   3.4591
     4.4449   6.3740   6.9724   7.8292   9.1445   9.1636  10.1451  10.2454
    11.5666  12.3947  12.7555  13.6031  13.9208  14.0407  14.9246  15.0186
    15.5641  16.8264  17.4783  17.9056  17.9205  18.7703  19.8642  20.6274
    21.3178  21.6865  21.7626  21.7828  22.2101  22.4822  22.8032  22.8204
    22.8954  23.9360

     occupation numbers 
     1.0000   1.0000   1.0000   1.0000   1.0000   1.0000   1.0000   1.0000
     1.0000   1.0000   1.0000   1.0000   1.0000   0.0000   0.0000   0.0000
     0.0000   0.0000   0.0000   0.0000   0.0000   0.0000   0.0000   0.0000
     0.0000   0.0000   0.0000   0.0000   0.0000   0.0000   0.0000   0.0000
     0.0000   0.0000   0.0000   0.0000   0.0000   0.0000   0.0000   0.0000
     0.0000   0.0000   0.0000   0.0000   0.0000   0.0000   0.0000   0.0000
     0.0000   0.0000

          k = 0.0000 0.3368 0.0000 (  7022 PWs)   bands (ev):

   -59.8686 -34.3995 -34.3625 -34.1246 -12.7460 -12.0860  -4.9110  -3.7309
    -3.5387  -2.3410  -1.1580  -1.0660  -0.5894   2.6729   2.8866   3.7066
     4.6211   6.7981   7.3407   8.0739   8.9109   8.9201  10.1943  10.3088
    11.9137  12.2712  12.9428  13.5289  14.3825  14.4293  14.8388  15.2785
    15.6309  15.9000  16.5609  17.5472  18.1461  18.3920  18.9393  20.8865
    20.8988  21.3034  21.3125  21.5508  22.1834  22.2362  22.3787  22.4989
    22.9161  24.3468

     occupation numbers 
     1.0000   1.0000   1.0000   1.0000   1.0000   1.0000   1.0000   1.0000
     1.0000   1.0000   1.0000   1.0000   1.0000   0.0000   0.0000   0.0000
     0.0000   0.0000   0.0000   0.0000   0.0000   0.0000   0.0000   0.0000
     0.0000   0.0000   0.0000   0.0000   0.0000   0.0000   0.0000   0.0000
     0.0000   0.0000   0.0000   0.0000   0.0000   0.0000   0.0000   0.0000
     0.0000   0.0000   0.0000   0.0000   0.0000   0.0000   0.0000   0.0000
     0.0000   0.0000

          k = 0.0000 0.3849 0.0000 (  7036 PWs)   bands (ev):

   -59.8630 -34.4208 -34.3874 -34.1379 -12.4722 -11.9798  -5.0963  -4.0398
    -3.5782  -2.5222  -1.3139  -0.8536  -0.6510   2.8170   2.8589   3.9475
     4.7574   7.2539   7.6759   8.2258   8.5703   8.7592  10.2282  10.4953
    11.9686  12.1151  13.0919  13.3534  14.4703  14.6757  14.8767  15.0459
    15.5420  15.9459  16.6879  16.7283  18.1861  18.3288  18.6424  20.2748
    20.4913  20.9151  21.1111  21.4179  21.9447  21.9673  22.1093  22.5257
    22.9468  23.9180

     occupation numbers 
     1.0000   1.0000   1.0000   1.0000   1.0000   1.0000   1.0000   1.0000
     1.0000   1.0000   1.0000   1.0000   1.0000   0.0000   0.0000   0.0000
     0.0000   0.0000   0.0000   0.0000   0.0000   0.0000   0.0000   0.0000
     0.0000   0.0000   0.0000   0.0000   0.0000   0.0000   0.0000   0.0000
     0.0000   0.0000   0.0000   0.0000   0.0000   0.0000   0.0000   0.0000
     0.0000   0.0000   0.0000   0.0000   0.0000   0.0000   0.0000   0.0000
     0.0000   0.0000

          k = 0.0000 0.4330 0.0000 (  7046 PWs)   bands (ev):

   -59.8581 -34.4701 -34.3772 -34.1493 -12.2185 -11.8837  -5.3101  -4.3058
    -3.6462  -2.6683  -1.4368  -0.6805  -0.5812   2.8775   3.0011   4.1441
     4.8553   7.5670   7.8936   7.9710   8.7112   8.8509  10.3627  10.5653
    11.8171  12.0873  12.6202  13.2180  14.0135  14.1789  15.0952  15.3391
    15.5868  16.3048  16.6768  17.1160  17.8677  18.4717  18.7668  19.7761
    19.9912  20.6175  20.8628  21.4624  21.6664  21.7578  21.9062  22.2350
    23.3708  23.3924

     occupation numbers 
     1.0000   1.0000   1.0000   1.0000   1.0000   1.0000   1.0000   1.0000
     1.0000   1.0000   1.0000   1.0000   1.0000   0.0000   0.0000   0.0000
     0.0000   0.0000   0.0000   0.0000   0.0000   0.0000   0.0000   0.0000
     0.0000   0.0000   0.0000   0.0000   0.0000   0.0000   0.0000   0.0000
     0.0000   0.0000   0.0000   0.0000   0.0000   0.0000   0.0000   0.0000
     0.0000   0.0000   0.0000   0.0000   0.0000   0.0000   0.0000   0.0000
     0.0000   0.0000

          k = 0.0000 0.4811 0.0000 (  7054 PWs)   bands (ev):

   -59.8544 -34.5080 -34.3692 -34.1580 -12.0094 -11.8065  -5.4998  -4.5116
    -3.7373  -2.7753  -1.5229  -0.5565  -0.4356   2.9242   3.1955   4.2765
     4.9197   7.1707   8.0168   8.2547   9.1045   9.1082  10.4214  10.5455
    11.7488  12.1247  12.2247  12.3485  13.5900  13.9616  15.0218  15.5600
    15.7534  16.5136  17.2616  17.3233  18.1660  18.5821  18.7144  19.6094
    19.6592  20.4280  20.7421  21.2585  21.4754  21.6169  21.7919  22.0070
    23.0155  23.4746

     occupation numbers 
     1.0000   1.0000   1.0000   1.0000   1.0000   1.0000   1.0000   1.0000
     1.0000   1.0000   1.0000   1.0000   1.0000   0.0000   0.0000   0.0000
     0.0000   0.0000   0.0000   0.0000   0.0000   0.0000   0.0000   0.0000
     0.0000   0.0000   0.0000   0.0000   0.0000   0.0000   0.0000   0.0000
     0.0000   0.0000   0.0000   0.0000   0.0000   0.0000   0.0000   0.0000
     0.0000   0.0000   0.0000   0.0000   0.0000   0.0000   0.0000   0.0000
     0.0000   0.0000

          k = 0.0000 0.5292 0.0000 (  7052 PWs)   bands (ev):

   -59.8515 -34.5315 -34.3641 -34.1634 -11.8701 -11.7562  -5.6296  -4.6419
    -3.8126  -2.8405  -1.5733  -0.4835  -0.3007   2.9704   3.3567   4.3465
     4.9558   6.7717   8.1164   8.5549   9.3054   9.6248  10.3331  10.5944
    11.3501  11.9626  11.9962  12.1423  13.3315  13.4342  15.3440  15.3610
    16.0448  16.5090  17.4490  17.7675  18.4668  18.6600  18.8345  19.5902
    19.5946  20.3442  20.7011  20.9840  21.3850  21.5241  21.7550  21.7663
    22.8023  23.3435

     occupation numbers 
     1.0000   1.0000   1.0000   1.0000   1.0000   1.0000   1.0000   1.0000
     1.0000   1.0000   1.0000   1.0000   1.0000   0.0000   0.0000   0.0000
     0.0000   0.0000   0.0000   0.0000   0.0000   0.0000   0.0000   0.0000
     0.0000   0.0000   0.0000   0.0000   0.0000   0.0000   0.0000   0.0000
     0.0000   0.0000   0.0000   0.0000   0.0000   0.0000   0.0000   0.0000
     0.0000   0.0000   0.0000   0.0000   0.0000   0.0000   0.0000   0.0000
     0.0000   0.0000

          k = 0.0000-0.5774 0.0000 (  7056 PWs)   bands (ev):

   -59.8509 -34.5393 -34.3624 -34.1655 -11.8211 -11.7387  -5.6758  -4.6865
    -3.8413  -2.8624  -1.5898  -0.4597  -0.2468   2.9895   3.4226   4.3675
     4.9674   6.6176   8.1623   8.6770   9.3573   9.9258  10.4431  10.6765
    10.7679  11.8483  11.8708  12.4139  13.0412  13.3106  15.2297  15.6218
    16.1501  16.3462  17.5351  17.9239  18.5640  18.6899  18.9774  19.5842
    19.6401  20.3264  20.6915  20.8541  21.3636  21.4906  21.6522  21.7450
    22.7271  23.2623

     occupation numbers 
     1.0000   1.0000   1.0000   1.0000   1.0000   1.0000   1.0000   1.0000
     1.0000   1.0000   1.0000   1.0000   1.0000   0.0000   0.0000   0.0000
     0.0000   0.0000   0.0000   0.0000   0.0000   0.0000   0.0000   0.0000
     0.0000   0.0000   0.0000   0.0000   0.0000   0.0000   0.0000   0.0000
     0.0000   0.0000   0.0000   0.0000   0.0000   0.0000   0.0000   0.0000
     0.0000   0.0000   0.0000   0.0000   0.0000   0.0000   0.0000   0.0000
     0.0000   0.0000

          k = 0.0417 0.0722 0.0000 (  7059 PWs)   bands (ev):

   -59.9020 -34.4576 -34.0793 -34.0599 -13.8551 -12.5307  -5.3789  -2.3956
    -2.1190  -1.9306  -1.2112  -0.8106   0.2088   3.2270   3.3873   3.5098
     3.5497   5.2229   5.8754   6.8295   7.4335   8.7540   9.9274  10.4532
    11.1341  11.5266  12.6417  13.2864  13.4430  13.6287  15.4495  16.1850
    16.7784  16.8014  17.1238  17.5330  19.2657  19.8964  21.2217  21.2472
    23.1296  23.2499  23.2693  23.8404  23.9385  24.1748  24.8930  25.4589
    25.5778  25.6346

     occupation numbers 
     1.0000   1.0000   1.0000   1.0000   1.0000   1.0000   1.0000   1.0000
     1.0000   1.0000   1.0000   1.0000   1.0000   0.0000   0.0000   0.0000
     0.0000   0.0000   0.0000   0.0000   0.0000   0.0000   0.0000   0.0000
     0.0000   0.0000   0.0000   0.0000   0.0000   0.0000   0.0000   0.0000
     0.0000   0.0000   0.0000   0.0000   0.0000   0.0000   0.0000   0.0000
     0.0000   0.0000   0.0000   0.0000   0.0000   0.0000   0.0000   0.0000
     0.0000   0.0000

          k = 0.0417 0.1203 0.0000 (  7056 PWs)   bands (ev):

   -59.8984 -34.4510 -34.1113 -34.0677 -13.7433 -12.4854  -5.2595  -2.6153
    -2.2218  -2.0049  -1.3984  -0.6790   0.1634   3.1228   3.1271   3.4298
     3.6950   5.3730   6.0172   7.0246   7.8513   8.8750  10.3290  10.4037
    11.0809  11.8488  12.1087  13.2842  13.3683  13.7454  15.4399  15.7731
    16.4112  16.9324  17.1900  18.3254  19.6509  20.1320  21.1387  21.8147
    21.8580  22.0805  22.6116  23.0431  23.2946  23.8629  24.3409  24.3824
    24.9497  25.2776

     occupation numbers 
     1.0000   1.0000   1.0000   1.0000   1.0000   1.0000   1.0000   1.0000
     1.0000   1.0000   1.0000   1.0000   1.0000   0.0000   0.0000   0.0000
     0.0000   0.0000   0.0000   0.0000   0.0000   0.0000   0.0000   0.0000
     0.0000   0.0000   0.0000   0.0000   0.0000   0.0000   0.0000   0.0000
     0.0000   0.0000   0.0000   0.0000   0.0000   0.0000   0.0000   0.0000
     0.0000   0.0000   0.0000   0.0000   0.0000   0.0000   0.0000   0.0000
     0.0000   0.0000

          k = 0.0417 0.1684 0.0000 (  7052 PWs)   bands (ev):

   -59.8932 -34.4418 -34.1564 -34.0783 -13.5809 -12.4196  -5.1010  -2.8903
    -2.5412  -1.8432  -1.6362  -0.6300   0.0675   2.8604   3.0750   3.2832
     3.9265   5.5885   6.2261   7.2436   8.4202   9.0420  10.2797  10.6370
    11.1247  11.7502  12.2694  13.2154  13.2957  13.8867  15.3517  15.4220
    15.9580  17.1741  17.3275  19.1746  20.0753  20.3077  20.3600  20.8021
    21.1760  21.9470  22.0675  22.4206  22.9607  23.2449  23.4733  23.9622
    24.7614  24.7935

     occupation numbers 
     1.0000   1.0000   1.0000   1.0000   1.0000   1.0000   1.0000   1.0000
     1.0000   1.0000   1.0000   1.0000   1.0000   0.0000   0.0000   0.0000
     0.0000   0.0000   0.0000   0.0000   0.0000   0.0000   0.0000   0.0000
     0.0000   0.0000   0.0000   0.0000   0.0000   0.0000   0.0000   0.0000
     0.0000   0.0000   0.0000   0.0000   0.0000   0.0000   0.0000   0.0000
     0.0000   0.0000   0.0000   0.0000   0.0000   0.0000   0.0000   0.0000
     0.0000   0.0000

          k = 0.0417 0.2165 0.0000 (  7046 PWs)   bands (ev):

   -59.8868 -34.4307 -34.2109 -34.0913 -13.3745 -12.3361  -4.9371  -3.1693
    -2.8750  -1.8903  -1.6462  -0.6836  -0.0944   2.6616   3.1321   3.1378
     4.1696   5.8677   6.4970   7.4845   8.9786   9.2186  10.1812  10.4453
    11.2267  11.9760  12.6109  13.1787  13.3042  14.0395  15.0640  15.3002
    15.5993  17.4446  17.5538  18.8426  19.2873  19.9109  20.4007  20.8017
    21.0228  21.2478  21.6077  22.0345  22.1937  23.1529  23.4112  23.6054
    24.2671  24.3527

     occupation numbers 
     1.0000   1.0000   1.0000   1.0000   1.0000   1.0000   1.0000   1.0000
     1.0000   1.0000   1.0000   1.0000   1.0000   0.0000   0.0000   0.0000
     0.0000   0.0000   0.0000   0.0000   0.0000   0.0000   0.0000   0.0000
     0.0000   0.0000   0.0000   0.0000   0.0000   0.0000   0.0000   0.0000
     0.0000   0.0000   0.0000   0.0000   0.0000   0.0000   0.0000   0.0000
     0.0000   0.0000   0.0000   0.0000   0.0000   0.0000   0.0000   0.0000
     0.0000   0.0000

          k = 0.0417 0.2646 0.0000 (  7025 PWs)   bands (ev):

   -59.8788 -34.4181 -34.2709 -34.1058 -13.1328 -12.2389  -4.8275  -3.3914
    -3.2175  -2.1334  -1.4325  -0.8181  -0.3038   2.5685   3.0197   3.2925
     4.3968   6.2091   6.8216   7.7418   9.2385   9.2821  10.1788  10.2296
    11.3984  12.3307  12.6431  13.3668  13.5082  14.2676  14.6868  15.3753
    15.4610  17.4701  17.6547  17.9017  18.1516  19.3230  20.3570  20.4624
    20.7435  21.3696  21.4408  21.7710  22.2488  22.6772  23.0635  23.2303
    23.8112  23.9675

     occupation numbers 
     1.0000   1.0000   1.0000   1.0000   1.0000   1.0000   1.0000   1.0000
     1.0000   1.0000   1.0000   1.0000   1.0000   0.0000   0.0000   0.0000
     0.0000   0.0000   0.0000   0.0000   0.0000   0.0000   0.0000   0.0000
     0.0000   0.0000   0.0000   0.0000   0.0000   0.0000   0.0000   0.0000
     0.0000   0.0000   0.0000   0.0000   0.0000   0.0000   0.0000   0.0000
     0.0000   0.0000   0.0000   0.0000   0.0000   0.0000   0.0000   0.0000
     0.0000   0.0000

          k = 0.0417 0.3127 0.0000 (  7013 PWs)   bands (ev):

   -59.8711 -34.4051 -34.3328 -34.1207 -12.8673 -12.1332  -4.8419  -3.5607
    -3.5068  -2.3480  -1.2297  -0.9930  -0.4929   2.5752   2.9510   3.5203
     4.5892   6.6086   7.1839   8.0024   9.0967   9.1180  10.2282  10.2475
    11.7500  12.3529  12.7285  13.5616  13.6943  14.6228  14.6432  15.3428
    15.7967  16.2502  16.9517  17.9972  17.9995  18.4284  19.4847  20.3264
    20.7281  21.1029  21.3082  21.8596  22.0655  22.2475  22.6004  23.5044
    23.6172  23.6901

     occupation numbers 
     1.0000   1.0000   1.0000   1.0000   1.0000   1.0000   1.0000   1.0000
     1.0000   1.0000   1.0000   1.0000   1.0000   0.0000   0.0000   0.0000
     0.0000   0.0000   0.0000   0.0000   0.0000   0.0000   0.0000   0.0000
     0.0000   0.0000   0.0000   0.0000   0.0000   0.0000   0.0000   0.0000
     0.0000   0.0000   0.0000   0.0000   0.0000   0.0000   0.0000   0.0000
     0.0000   0.0000   0.0000   0.0000   0.0000   0.0000   0.0000   0.0000
     0.0000   0.0000

          k = 0.0417 0.3608 0.0000 (  7032 PWs)   bands (ev):

   -59.8656 -34.3927 -34.3927 -34.1354 -12.5928 -12.0254  -4.9847  -3.8899
    -3.5454  -2.5260  -1.1711  -1.0725  -0.5677   2.6505   2.9476   3.7710
     4.7351   7.0548   7.5506   8.2413   8.7597   8.8796  10.2375  10.4258
    11.9809  12.1972  12.9208  13.3405  14.1519  14.8084  15.0230  15.0862
    15.7763  15.7885  16.4919  17.1411  18.0771  18.6098  18.7797  19.9667
    20.4552  20.6739  21.3062  21.3587  21.7473  22.1032  22.6807  23.2583
    23.3710  23.7359

     occupation numbers 
     1.0000   1.0000   1.0000   1.0000   1.0000   1.0000   1.0000   1.0000
     1.0000   1.0000   1.0000   1.0000   1.0000   0.0000   0.0000   0.0000
     0.0000   0.0000   0.0000   0.0000   0.0000   0.0000   0.0000   0.0000
     0.0000   0.0000   0.0000   0.0000   0.0000   0.0000   0.0000   0.0000
     0.0000   0.0000   0.0000   0.0000   0.0000   0.0000   0.0000   0.0000
     0.0000   0.0000   0.0000   0.0000   0.0000   0.0000   0.0000   0.0000
     0.0000   0.0000

          k = 0.0417 0.4090 0.0000 (  7038 PWs)   bands (ev):

   -59.8599 -34.4459 -34.3814 -34.1483 -12.3278 -11.9233  -5.1885  -4.1866
    -3.5924  -2.6658  -1.3281  -0.9564  -0.5006   2.7573   3.0170   4.0061
     4.8286   7.4987   7.8544   8.1445   8.6221   8.8410  10.3395  10.5653
    11.8755  12.1028  12.6695  13.5055  14.1145  14.3690  15.0304  15.1088
    15.6495  16.1495  16.6723  16.8615  17.7783  18.6804  18.8009  19.7204
    20.0366  20.0940  20.9493  21.1831  21.6196  21.8927  22.8137  23.0892
    23.2781  23.3842

     occupation numbers 
     1.0000   1.0000   1.0000   1.0000   1.0000   1.0000   1.0000   1.0000
     1.0000   1.0000   1.0000   1.0000   1.0000   0.0000   0.0000   0.0000
     0.0000   0.0000   0.0000   0.0000   0.0000   0.0000   0.0000   0.0000
     0.0000   0.0000   0.0000   0.0000   0.0000   0.0000   0.0000   0.0000
     0.0000   0.0000   0.0000   0.0000   0.0000   0.0000   0.0000   0.0000
     0.0000   0.0000   0.0000   0.0000   0.0000   0.0000   0.0000   0.0000
     0.0000   0.0000

          k = 0.0417 0.4571 0.0000 (  7042 PWs)   bands (ev):

   -59.8553 -34.4889 -34.3723 -34.1588 -12.0947 -11.8357  -5.3906  -4.4309
    -3.6765  -2.7686  -1.4510  -0.8387  -0.3666   2.8611   3.1511   4.1988
     4.8707   7.4359   8.0493   8.1270   8.9365   9.0254  10.4613  10.5772
    11.6946  12.1291  12.3030  12.8289  13.8659  14.0814  15.0747  15.2200
    15.8567  16.2183  17.1277  17.1998  17.6418  18.7470  18.8830  19.5604
    19.7406  19.7916  20.6799  20.8554  21.6057  21.7417  22.6773  22.7438
    23.1413  23.1603

     occupation numbers 
     1.0000   1.0000   1.0000   1.0000   1.0000   1.0000   1.0000   1.0000
     1.0000   1.0000   1.0000   1.0000   1.0000   0.0000   0.0000   0.0000
     0.0000   0.0000   0.0000   0.0000   0.0000   0.0000   0.0000   0.0000
     0.0000   0.0000   0.0000   0.0000   0.0000   0.0000   0.0000   0.0000
     0.0000   0.0000   0.0000   0.0000   0.0000   0.0000   0.0000   0.0000
     0.0000   0.0000   0.0000   0.0000   0.0000   0.0000   0.0000   0.0000
     0.0000   0.0000

          k = 0.0417 0.5052 0.0000 (  7051 PWs)   bands (ev):

   -59.8524 -34.5193 -34.3658 -34.1663 -11.9187 -11.7711  -5.5499  -4.6051
    -3.7665  -2.8361  -1.5342  -0.7358  -0.2302   2.9396   3.3112   4.3353
     4.8744   6.9755   8.1947   8.4894   9.2585   9.4011  10.4168  10.5745
    11.6447  11.8365  12.1034  12.2445  13.4328  13.7614  15.2067  15.3332
    15.9099  16.4907  17.3302  17.6037  17.8408  18.7497  19.0002  19.3611
    19.6996  19.8232  20.5378  20.6531  21.3816  21.6746  22.4467  22.5744
    22.9917  23.0380

     occupation numbers 
     1.0000   1.0000   1.0000   1.0000   1.0000   1.0000   1.0000   1.0000
     1.0000   1.0000   1.0000   1.0000   1.0000   0.0000   0.0000   0.0000
     0.0000   0.0000   0.0000   0.0000   0.0000   0.0000   0.0000   0.0000
     0.0000   0.0000   0.0000   0.0000   0.0000   0.0000   0.0000   0.0000
     0.0000   0.0000   0.0000   0.0000   0.0000   0.0000   0.0000   0.0000
     0.0000   0.0000   0.0000   0.0000   0.0000   0.0000   0.0000   0.0000
     0.0000   0.0000

          k = 0.0417 0.5533 0.0000 (  7038 PWs)   bands (ev):

   -59.8497 -34.5347 -34.3621 -34.1701 -11.8233 -11.7367  -5.6376  -4.6958
    -3.8224  -2.8696  -1.5759  -0.6795  -0.1418   2.9817   3.4264   4.4076
     4.8644   6.6842   8.3008   8.7314   9.3605   9.8880  10.3705  10.6703
    11.0007  11.7085  11.9153  12.3814  13.2382  13.3233  15.2542  15.5470
    15.9622  16.4296  17.5088  17.7823  18.0650  18.8986  18.9807  19.2780
    19.8053  19.8788  20.4876  20.5892  21.1497  21.6498  22.2624  22.5223
    22.8732  22.9735

     occupation numbers 
     1.0000   1.0000   1.0000   1.0000   1.0000   1.0000   1.0000   1.0000
     1.0000   1.0000   1.0000   1.0000   1.0000   0.0000   0.0000   0.0000
     0.0000   0.0000   0.0000   0.0000   0.0000   0.0000   0.0000   0.0000
     0.0000   0.0000   0.0000   0.0000   0.0000   0.0000   0.0000   0.0000
     0.0000   0.0000   0.0000   0.0000   0.0000   0.0000   0.0000   0.0000
     0.0000   0.0000   0.0000   0.0000   0.0000   0.0000   0.0000   0.0000
     0.0000   0.0000

          k = 0.0833 0.1443 0.0000 (  7059 PWs)   bands (ev):

   -59.8944 -34.4436 -34.1482 -34.0774 -13.6075 -12.4303  -5.1241  -2.8465
    -2.4711  -1.8744  -1.6635  -0.5787   0.0872   2.8997   3.0395   3.2930
     3.9146   5.5540   6.1924   7.2182   8.3479   9.0190  10.3141  10.6723
    11.0989  11.7211  12.1482  13.1830  13.2952  13.9266  15.3694  15.5932
    15.9390  17.0143  17.3915  19.0719  20.0798  20.4220  20.7838  21.0799
    21.2325  21.5641  21.6049  22.6906  22.8294  23.1141  23.5680  24.1585
    24.4613  24.8855

     occupation numbers 
     1.0000   1.0000   1.0000   1.0000   1.0000   1.0000   1.0000   1.0000
     1.0000   1.0000   1.0000   1.0000   1.0000   0.0000   0.0000   0.0000
     0.0000   0.0000   0.0000   0.0000   0.0000   0.0000   0.0000   0.0000
     0.0000   0.0000   0.0000   0.0000   0.0000   0.0000   0.0000   0.0000
     0.0000   0.0000   0.0000   0.0000   0.0000   0.0000   0.0000   0.0000
     0.0000   0.0000   0.0000   0.0000   0.0000   0.0000   0.0000   0.0000
     0.0000   0.0000

          k = 0.0833 0.1925 0.0000 (  7055 PWs)   bands (ev):

   -59.8888 -34.4335 -34.1956 -34.0907 -13.4248 -12.3562  -4.9661  -3.1031
    -2.7436  -1.9726  -1.7116  -0.5484  -0.0447   2.6884   3.0226   3.1546
     4.1642   5.8009   6.4328   7.4491   8.9451   9.1991  10.1820  10.6767
    11.1801  11.7129  12.3704  13.0805  13.3360  14.1569  14.9821  15.4925
    15.6814  17.2000  17.6553  19.5833  19.7434  20.0146  20.3473  20.6551
    20.8108  21.0210  21.1627  21.7855  22.5201  22.8546  23.3204  23.9589
    23.9926  24.8484

     occupation numbers 
     1.0000   1.0000   1.0000   1.0000   1.0000   1.0000   1.0000   1.0000
     1.0000   1.0000   1.0000   1.0000   1.0000   0.0000   0.0000   0.0000
     0.0000   0.0000   0.0000   0.0000   0.0000   0.0000   0.0000   0.0000
     0.0000   0.0000   0.0000   0.0000   0.0000   0.0000   0.0000   0.0000
     0.0000   0.0000   0.0000   0.0000   0.0000   0.0000   0.0000   0.0000
     0.0000   0.0000   0.0000   0.0000   0.0000   0.0000   0.0000   0.0000
     0.0000   0.0000

          k = 0.0833 0.2406 0.0000 (  7034 PWs)   bands (ev):

   -59.8812 -34.4217 -34.2499 -34.1060 -13.2027 -12.2664  -4.8313  -3.3295
    -3.0438  -2.2658  -1.5402  -0.6114  -0.2251   2.5403   3.0528   3.1066
     4.4068   6.1119   6.7319   7.7084   9.3596   9.4206  10.1341  10.3554
    11.2902  12.0839  12.4247  13.0143  13.5644  14.4325  14.4644  15.5331
    15.5947  17.4169  17.9454  18.2656  18.8297  19.8162  20.0001  20.2469
    20.4298  21.1756  21.2347  21.2936  22.1049  22.7788  22.9589  23.5318
    24.3317  24.3356

     occupation numbers 
     1.0000   1.0000   1.0000   1.0000   1.0000   1.0000   1.0000   1.0000
     1.0000   1.0000   1.0000   1.0000   1.0000   0.0000   0.0000   0.0000
     0.0000   0.0000   0.0000   0.0000   0.0000   0.0000   0.0000   0.0000
     0.0000   0.0000   0.0000   0.0000   0.0000   0.0000   0.0000   0.0000
     0.0000   0.0000   0.0000   0.0000   0.0000   0.0000   0.0000   0.0000
     0.0000   0.0000   0.0000   0.0000   0.0000   0.0000   0.0000   0.0000
     0.0000   0.0000

          k = 0.0833 0.2887 0.0000 (  7037 PWs)   bands (ev):

   -59.8748 -34.4094 -34.3080 -34.1226 -12.9512 -12.1653  -4.7885  -3.4658
    -3.3768  -2.5012  -1.3975  -0.7515  -0.4000   2.4766   3.0096   3.2816
     4.6163   6.4841   7.0790   7.9849   9.3441   9.4017  10.2187  10.2990
    11.5201  12.3359  12.4881  13.1148  13.4415  14.4424  14.7635  15.5785
    15.7147  16.9477  17.3509  18.0131  18.2939  18.8350  19.4284  19.9192
    20.3164  20.8155  20.8241  21.7166  22.3038  22.3984  22.9126  23.0957
    23.9632  24.3162

     occupation numbers 
     1.0000   1.0000   1.0000   1.0000   1.0000   1.0000   1.0000   1.0000
     1.0000   1.0000   1.0000   1.0000   1.0000   0.0000   0.0000   0.0000
     0.0000   0.0000   0.0000   0.0000   0.0000   0.0000   0.0000   0.0000
     0.0000   0.0000   0.0000   0.0000   0.0000   0.0000   0.0000   0.0000
     0.0000   0.0000   0.0000   0.0000   0.0000   0.0000   0.0000   0.0000
     0.0000   0.0000   0.0000   0.0000   0.0000   0.0000   0.0000   0.0000
     0.0000   0.0000

          k = 0.0833 0.3368 0.0000 (  7030 PWs)   bands (ev):

   -59.8676 -34.3968 -34.3656 -34.1391 -12.6834 -12.0587  -4.8759  -3.7260
    -3.5031  -2.6685  -1.3214  -0.9341  -0.4806   2.4980   3.0270   3.5122
     4.7742   6.9112   7.4547   8.2628   9.0651   9.1515  10.3589  10.3630
    11.8733  12.2991  12.5936  13.1311  13.4814  14.7038  15.1327  15.6224
    15.8886  15.9390  16.5885  17.7134  18.0348  18.6801  19.0667  19.3588
    19.7958  20.3659  21.1659  21.4145  21.9242  22.1621  23.0395  23.1257
    23.5748  24.3960

     occupation numbers 
     1.0000   1.0000   1.0000   1.0000   1.0000   1.0000   1.0000   1.0000
     1.0000   1.0000   1.0000   1.0000   1.0000   0.0000   0.0000   0.0000
     0.0000   0.0000   0.0000   0.0000   0.0000   0.0000   0.0000   0.0000
     0.0000   0.0000   0.0000   0.0000   0.0000   0.0000   0.0000   0.0000
     0.0000   0.0000   0.0000   0.0000   0.0000   0.0000   0.0000   0.0000
     0.0000   0.0000   0.0000   0.0000   0.0000   0.0000   0.0000   0.0000
     0.0000   0.0000

          k = 0.0833 0.3849 0.0000 (  7035 PWs)   bands (ev):

   -59.8616 -34.4193 -34.3851 -34.1543 -12.4156 -11.9535  -5.0493  -4.0609
    -3.5213  -2.7779  -1.2859  -1.1259  -0.4366   2.5942   3.0909   3.7605
     4.8670   7.3723   7.8226   8.4383   8.6719   9.0292  10.4251  10.5537
    11.8605  12.1934  12.4886  13.3759  13.9003  14.5862  14.9611  15.2593
    15.6751  16.2194  16.4314  16.9734  17.9801  18.6054  18.9776  19.1133
    19.5824  19.9432  20.6541  21.1840  21.6852  22.3099  22.8750  22.9211
    23.4886  23.9916

     occupation numbers 
     1.0000   1.0000   1.0000   1.0000   1.0000   1.0000   1.0000   1.0000
     1.0000   1.0000   1.0000   1.0000   1.0000   0.0000   0.0000   0.0000
     0.0000   0.0000   0.0000   0.0000   0.0000   0.0000   0.0000   0.0000
     0.0000   0.0000   0.0000   0.0000   0.0000   0.0000   0.0000   0.0000
     0.0000   0.0000   0.0000   0.0000   0.0000   0.0000   0.0000   0.0000
     0.0000   0.0000   0.0000   0.0000   0.0000   0.0000   0.0000   0.0000
     0.0000   0.0000

          k = 0.0833 0.4330 0.0000 (  7036 PWs)   bands (ev):

   -59.8563 -34.4650 -34.3750 -34.1673 -12.1681 -11.8581  -5.2434  -4.3526
    -3.5858  -2.8435  -1.3014  -1.2239  -0.3203   2.7369   3.1868   3.9993
     4.8865   7.6711   8.1342   8.1348   8.9008   9.0959  10.5617  10.6417
    11.5463  12.1649  12.3191  13.3236  14.0450  14.0476  14.8380  15.2433
    15.8881  15.9118  16.6157  17.2620  17.6583  18.3526  19.0375  19.1286
    19.5334  19.7670  20.1365  20.7894  21.7252  22.2125  22.6581  22.7394
    23.5638  23.5662

     occupation numbers 
     1.0000   1.0000   1.0000   1.0000   1.0000   1.0000   1.0000   1.0000
     1.0000   1.0000   1.0000   1.0000   1.0000   0.0000   0.0000   0.0000
     0.0000   0.0000   0.0000   0.0000   0.0000   0.0000   0.0000   0.0000
     0.0000   0.0000   0.0000   0.0000   0.0000   0.0000   0.0000   0.0000
     0.0000   0.0000   0.0000   0.0000   0.0000   0.0000   0.0000   0.0000
     0.0000   0.0000   0.0000   0.0000   0.0000   0.0000   0.0000   0.0000
     0.0000   0.0000

          k = 0.0833 0.4811 0.0000 (  7050 PWs)   bands (ev):

   -59.8531 -34.5000 -34.3673 -34.1776 -11.9647 -11.7813  -5.4133  -4.5781
    -3.6833  -2.8780  -1.4417  -1.1396  -0.1810   2.8703   3.3129   4.2147
     4.8363   7.2679   8.3883   8.4718   9.2911   9.2925  10.5913  10.6305
    11.3400  12.0882  12.1822  12.5474  13.6615  14.0279  14.9278  15.2048
    15.9505  16.1471  16.8293  17.5167  17.6638  18.1600  18.9246  19.0362
    19.6830  19.7310  20.0727  20.4388  21.6634  22.0696  22.4842  22.6221
    23.2338  23.4582

     occupation numbers 
     1.0000   1.0000   1.0000   1.0000   1.0000   1.0000   1.0000   1.0000
     1.0000   1.0000   1.0000   1.0000   1.0000   0.0000   0.0000   0.0000
     0.0000   0.0000   0.0000   0.0000   0.0000   0.0000   0.0000   0.0000
     0.0000   0.0000   0.0000   0.0000   0.0000   0.0000   0.0000   0.0000
     0.0000   0.0000   0.0000   0.0000   0.0000   0.0000   0.0000   0.0000
     0.0000   0.0000   0.0000   0.0000   0.0000   0.0000   0.0000   0.0000
     0.0000   0.0000

          k = 0.0833 0.5292 0.0000 (  7050 PWs)   bands (ev):

   -59.8505 -34.5219 -34.3623 -34.1840 -11.8296 -11.7312  -5.5288  -4.7206
    -3.7660  -2.8927  -1.5325  -1.0742  -0.0626   2.9460   3.4469   4.4023
     4.7340   6.8725   8.6124   8.8490   9.4063   9.7982  10.4105  10.6780
    11.2638  11.5249  12.0680  12.3918  13.3947  13.5998  15.1002  15.4009
    15.7568  16.4623  17.1370  17.5689  17.6641  18.1175  18.9203  19.0527
    19.5788  19.7902  20.2452  20.2515  21.6257  21.9885  22.2949  22.4516
    23.0553  23.3277

     occupation numbers 
     1.0000   1.0000   1.0000   1.0000   1.0000   1.0000   1.0000   1.0000
     1.0000   1.0000   1.0000   1.0000   1.0000   0.0000   0.0000   0.0000
     0.0000   0.0000   0.0000   0.0000   0.0000   0.0000   0.0000   0.0000
     0.0000   0.0000   0.0000   0.0000   0.0000   0.0000   0.0000   0.0000
     0.0000   0.0000   0.0000   0.0000   0.0000   0.0000   0.0000   0.0000
     0.0000   0.0000   0.0000   0.0000   0.0000   0.0000   0.0000   0.0000
     0.0000   0.0000

          k = 0.0833 0.5774 0.0000 (  7044 PWs)   bands (ev):

   -59.8492 -34.5291 -34.3605 -34.1862 -11.7820 -11.7138  -5.5698  -4.7693
    -3.7976  -2.8965  -1.5639  -1.0509  -0.0151   2.9672   3.5088   4.5256
     4.6361   6.7202   8.7243   9.0189   9.4019  10.0613  10.5587  10.7452
    10.7592  11.4036  11.9400  12.5416  13.2869  13.3462  15.2057  15.5601
    15.5980  16.5116  17.3493  17.5682  17.6095  18.1296  18.8449  19.2693
    19.4486  19.7891  20.2137  20.3124  21.6393  21.9951  22.2014  22.2694
    23.0019  23.4308

     occupation numbers 
     1.0000   1.0000   1.0000   1.0000   1.0000   1.0000   1.0000   1.0000
     1.0000   1.0000   1.0000   1.0000   1.0000   0.0000   0.0000   0.0000
     0.0000   0.0000   0.0000   0.0000   0.0000   0.0000   0.0000   0.0000
     0.0000   0.0000   0.0000   0.0000   0.0000   0.0000   0.0000   0.0000
     0.0000   0.0000   0.0000   0.0000   0.0000   0.0000   0.0000   0.0000
     0.0000   0.0000   0.0000   0.0000   0.0000   0.0000   0.0000   0.0000
     0.0000   0.0000

          k = 0.1250 0.2165 0.0000 (  7043 PWs)   bands (ev):

   -59.8825 -34.4232 -34.2420 -34.1068 -13.2263 -12.2757  -4.8333  -3.3049
    -2.9554  -2.3502  -1.5809  -0.5217  -0.1970   2.5301   3.0261   3.0615
     4.4169   6.0798   6.7023   7.7002   9.3800   9.5510  10.0414  10.4891
    11.2552  11.8955  12.3197  12.9279  13.6254  14.3630  14.4741  15.6126
    15.6559  17.2955  18.0337  19.0077  19.0555  19.4710  19.7069  20.2810
    20.4263  20.7983  21.1688  21.5795  21.9692  22.6875  22.7333  23.8416
    24.1999  24.3765

     occupation numbers 
     1.0000   1.0000   1.0000   1.0000   1.0000   1.0000   1.0000   1.0000
     1.0000   1.0000   1.0000   1.0000   1.0000   0.0000   0.0000   0.0000
     0.0000   0.0000   0.0000   0.0000   0.0000   0.0000   0.0000   0.0000
     0.0000   0.0000   0.0000   0.0000   0.0000   0.0000   0.0000   0.0000
     0.0000   0.0000   0.0000   0.0000   0.0000   0.0000   0.0000   0.0000
     0.0000   0.0000   0.0000   0.0000   0.0000   0.0000   0.0000   0.0000
     0.0000   0.0000

          k = 0.1250 0.2646 0.0000 (  7041 PWs)   bands (ev):

   -59.8761 -34.4115 -34.2932 -34.1255 -12.9940 -12.1816  -4.7593  -3.4370
    -3.2168  -2.6673  -1.4966  -0.5826  -0.3485   2.4202   3.0365   3.1171
     4.6445   6.4222   7.0267   7.9823   9.5097   9.7186  10.2401  10.2832
    11.3416  12.1485  12.3164  12.8935  13.3542  14.3619  14.8228  15.6910
    15.7024  17.4413  17.7095  18.4051  18.5070  18.5636  19.2452  19.4616
    20.1923  20.6604  20.9113  21.6044  21.8925  22.6428  22.8339  23.1454
    23.8202  24.5625

     occupation numbers 
     1.0000   1.0000   1.0000   1.0000   1.0000   1.0000   1.0000   1.0000
     1.0000   1.0000   1.0000   1.0000   1.0000   0.0000   0.0000   0.0000
     0.0000   0.0000   0.0000   0.0000   0.0000   0.0000   0.0000   0.0000
     0.0000   0.0000   0.0000   0.0000   0.0000   0.0000   0.0000   0.0000
     0.0000   0.0000   0.0000   0.0000   0.0000   0.0000   0.0000   0.0000
     0.0000   0.0000   0.0000   0.0000   0.0000   0.0000   0.0000   0.0000
     0.0000   0.0000

          k = 0.1250 0.3127 0.0000 (  7024 PWs)   bands (ev):

   -59.8686 -34.3993 -34.3452 -34.1447 -12.7394 -12.0789  -4.7950  -3.5605
    -3.4662  -2.8540  -1.5031  -0.7225  -0.4283   2.3947   3.0729   3.2862
     4.8231   6.8239   7.3934   8.2794   9.3909   9.4553  10.3115  10.5595
    11.5886  12.3167  12.3948  12.8315  13.0239  14.6880  15.1682  15.6965
    15.8659  16.5037  17.1316  18.0549  18.0817  18.3718  18.8562  19.0217
    19.7609  19.9920  21.0477  21.6237  21.8316  21.9986  22.9173  23.2423
    23.6778  24.2785

     occupation numbers 
     1.0000   1.0000   1.0000   1.0000   1.0000   1.0000   1.0000   1.0000
     1.0000   1.0000   1.0000   1.0000   1.0000   0.0000   0.0000   0.0000
     0.0000   0.0000   0.0000   0.0000   0.0000   0.0000   0.0000   0.0000
     0.0000   0.0000   0.0000   0.0000   0.0000   0.0000   0.0000   0.0000
     0.0000   0.0000   0.0000   0.0000   0.0000   0.0000   0.0000   0.0000
     0.0000   0.0000   0.0000   0.0000   0.0000   0.0000   0.0000   0.0000
     0.0000   0.0000

          k = 0.1250 0.3608 0.0000 (  7030 PWs)   bands (ev):

   -59.8627 -34.3955 -34.3876 -34.1637 -12.4769 -11.9737  -4.9243  -3.9323
    -3.4470  -2.9399  -1.5708  -0.9118  -0.4069   2.4675   3.1464   3.5015
     4.9377   7.2735   7.7819   8.5556   8.9556   9.3324  10.5122  10.6390
    11.6946  12.3294  12.3373  12.9462  13.3367  14.8780  15.2635  15.3284
    15.6938  16.3170  16.4142  17.4301  17.7860  18.1755  18.7918  19.0860
    19.4595  19.5104  20.9606  21.0411  21.7000  22.0684  22.8150  22.8227
    23.8373  24.4135

     occupation numbers 
     1.0000   1.0000   1.0000   1.0000   1.0000   1.0000   1.0000   1.0000
     1.0000   1.0000   1.0000   1.0000   1.0000   0.0000   0.0000   0.0000
     0.0000   0.0000   0.0000   0.0000   0.0000   0.0000   0.0000   0.0000
     0.0000   0.0000   0.0000   0.0000   0.0000   0.0000   0.0000   0.0000
     0.0000   0.0000   0.0000   0.0000   0.0000   0.0000   0.0000   0.0000
     0.0000   0.0000   0.0000   0.0000   0.0000   0.0000   0.0000   0.0000
     0.0000   0.0000

          k = 0.1250 0.4090 0.0000 (  7046 PWs)   bands (ev):

   -59.8581 -34.4402 -34.3773 -34.1809 -12.2245 -11.8737  -5.0896  -4.2744
    -3.4719  -2.9665  -1.6079  -1.1173  -0.3153   2.6166   3.2366   3.7291
     4.9803   7.7092   8.1620   8.3730   8.9526   9.3260  10.6952  10.7388
    11.3338  12.2825  12.3513  13.4055  13.6935  14.2116  14.9976  15.1796
    15.6101  16.1285  16.3116  17.1840  17.6168  18.0277  18.4371  18.8673
    19.5777  19.7388  20.2372  20.8548  21.8111  21.8323  22.3915  22.9176
    23.8941  24.0425

     occupation numbers 
     1.0000   1.0000   1.0000   1.0000   1.0000   1.0000   1.0000   1.0000
     1.0000   1.0000   1.0000   1.0000   1.0000   0.0000   0.0000   0.0000
     0.0000   0.0000   0.0000   0.0000   0.0000   0.0000   0.0000   0.0000
     0.0000   0.0000   0.0000   0.0000   0.0000   0.0000   0.0000   0.0000
     0.0000   0.0000   0.0000   0.0000   0.0000   0.0000   0.0000   0.0000
     0.0000   0.0000   0.0000   0.0000   0.0000   0.0000   0.0000   0.0000
     0.0000   0.0000

          k = 0.1250 0.4571 0.0000 (  7039 PWs)   bands (ev):

   -59.8530 -34.4765 -34.3684 -34.1948 -12.0037 -11.7875  -5.2465  -4.5546
    -3.5632  -2.9571  -1.5837  -1.3093  -0.1837   2.7794   3.3457   3.9443
     4.9537   7.5969   8.4510   8.5136   9.2920   9.4666  10.7570  10.8632
    10.9676  12.2598  12.2769  13.0369  13.8374  14.0143  14.5799  15.3741
    15.6267  15.8060  16.4549  17.1280  17.6593  17.8346  18.3105  18.5465
    19.6334  19.8174  20.2253  20.6676  21.5138  21.7027  22.2861  23.0231
    23.5403  23.6454

     occupation numbers 
     1.0000   1.0000   1.0000   1.0000   1.0000   1.0000   1.0000   1.0000
     1.0000   1.0000   1.0000   1.0000   1.0000   0.0000   0.0000   0.0000
     0.0000   0.0000   0.0000   0.0000   0.0000   0.0000   0.0000   0.0000
     0.0000   0.0000   0.0000   0.0000   0.0000   0.0000   0.0000   0.0000
     0.0000   0.0000   0.0000   0.0000   0.0000   0.0000   0.0000   0.0000
     0.0000   0.0000   0.0000   0.0000   0.0000   0.0000   0.0000   0.0000
     0.0000   0.0000

          k = 0.1250 0.5052 0.0000 (  7045 PWs)   bands (ev):

   -59.8502 -34.5021 -34.3622 -34.2047 -11.8380 -11.7237  -5.3670  -4.7528
    -3.6715  -2.9315  -1.5380  -1.4608  -0.0446   2.8782   3.4869   4.1281
     4.8794   7.1534   8.8543   8.9166   9.6059   9.7418  10.5068  10.7561
    11.0792  11.9517  12.2141  12.5094  13.5813  13.9023  14.6230  15.2681
    15.6804  16.2512  16.4744  17.0450  17.5140  17.8679  18.2542  18.3508
    19.5101  19.8365  20.5308  20.5380  21.2964  21.5550  22.3288  22.8244
    23.2783  23.3655

     occupation numbers 
     1.0000   1.0000   1.0000   1.0000   1.0000   1.0000   1.0000   1.0000
     1.0000   1.0000   1.0000   1.0000   1.0000   0.0000   0.0000   0.0000
     0.0000   0.0000   0.0000   0.0000   0.0000   0.0000   0.0000   0.0000
     0.0000   0.0000   0.0000   0.0000   0.0000   0.0000   0.0000   0.0000
     0.0000   0.0000   0.0000   0.0000   0.0000   0.0000   0.0000   0.0000
     0.0000   0.0000   0.0000   0.0000   0.0000   0.0000   0.0000   0.0000
     0.0000   0.0000

          k = 0.1250 0.5533 0.0000 (  7053 PWs)   bands (ev):

   -59.8490 -34.5153 -34.3593 -34.2098 -11.7486 -11.6896  -5.4325  -4.8554
    -3.7405  -2.9107  -1.5458  -1.5084   0.0491   2.9065   3.6043   4.2492
     4.8060   6.8728   9.1859   9.3058   9.5269  10.1395  10.3542  10.8358
    10.9666  11.3944  12.0861  12.5973  13.3962  13.5408  14.8280  15.3735
    15.5042  16.6018  16.6218  17.0342  17.4420  17.6149  18.2530  18.3994
    19.5499  19.7407  20.4598  20.6859  21.1917  21.4936  22.3825  22.3903
    23.2545  23.5296

     occupation numbers 
     1.0000   1.0000   1.0000   1.0000   1.0000   1.0000   1.0000   1.0000
     1.0000   1.0000   1.0000   1.0000   1.0000   0.0000   0.0000   0.0000
     0.0000   0.0000   0.0000   0.0000   0.0000   0.0000   0.0000   0.0000
     0.0000   0.0000   0.0000   0.0000   0.0000   0.0000   0.0000   0.0000
     0.0000   0.0000   0.0000   0.0000   0.0000   0.0000   0.0000   0.0000
     0.0000   0.0000   0.0000   0.0000   0.0000   0.0000   0.0000   0.0000
     0.0000   0.0000

          k = 0.1667 0.2887 0.0000 (  7031 PWs)   bands (ev):

   -59.8694 -34.4002 -34.3376 -34.1476 -12.7584 -12.0856  -4.7649  -3.4710
    -3.4512  -2.9550  -1.5699  -0.6381  -0.4110   2.3581   3.0874   3.1966
     4.8434   6.7945   7.3724   8.2844   9.5454   9.6024  10.2855  10.7097
    11.3710  12.2592  12.3165  12.7208  12.9061  14.6949  15.1784  15.6007
    15.9116  17.2444  17.2920  17.5456  18.0249  18.5918  18.7226  19.0619
    19.2381  20.4974  20.8132  21.3257  21.8627  22.1973  22.7993  23.5191
    23.5515  24.0394

     occupation numbers 
     1.0000   1.0000   1.0000   1.0000   1.0000   1.0000   1.0000   1.0000
     1.0000   1.0000   1.0000   1.0000   1.0000   0.0000   0.0000   0.0000
     0.0000   0.0000   0.0000   0.0000   0.0000   0.0000   0.0000   0.0000
     0.0000   0.0000   0.0000   0.0000   0.0000   0.0000   0.0000   0.0000
     0.0000   0.0000   0.0000   0.0000   0.0000   0.0000   0.0000   0.0000
     0.0000   0.0000   0.0000   0.0000   0.0000   0.0000   0.0000   0.0000
     0.0000   0.0000

          k = 0.1667 0.3368 0.0000 (  7027 PWs)   bands (ev):

   -59.8632 -34.3890 -34.3807 -34.1710 -12.5084 -11.9838  -4.8489  -3.8349
    -3.3954  -3.0658  -1.7416  -0.7751  -0.3967   2.3991   3.1744   3.3381
     4.9868   7.2210   7.7559   8.5818   9.2081   9.5906  10.4479  10.9243
    11.4811  12.1752  12.4226  12.6326  13.0055  14.9326  15.1499  15.6721
    15.8852  16.3735  16.9434  16.9651  17.6814  18.0057  18.6964  18.7279
    19.4255  19.9263  20.5325  21.2716  21.5930  22.0418  22.5614  23.3188
    23.7469  24.2605

     occupation numbers 
     1.0000   1.0000   1.0000   1.0000   1.0000   1.0000   1.0000   1.0000
     1.0000   1.0000   1.0000   1.0000   1.0000   0.0000   0.0000   0.0000
     0.0000   0.0000   0.0000   0.0000   0.0000   0.0000   0.0000   0.0000
     0.0000   0.0000   0.0000   0.0000   0.0000   0.0000   0.0000   0.0000
     0.0000   0.0000   0.0000   0.0000   0.0000   0.0000   0.0000   0.0000
     0.0000   0.0000   0.0000   0.0000   0.0000   0.0000   0.0000   0.0000
     0.0000   0.0000

          k = 0.1667 0.3849 0.0000 (  7038 PWs)   bands (ev):

   -59.8583 -34.4203 -34.3785 -34.1936 -12.2599 -11.8829  -4.9703  -4.2088
    -3.3575  -3.0786  -1.9140  -0.9668  -0.3256   2.5352   3.2715   3.5119
     5.0709   7.6731   8.1561   8.6315   9.0320   9.5899  10.6963  10.8121
    11.3613  12.3292  12.4852  12.9787  13.2557  14.8036  14.8379  15.2028
    15.7293  16.2465  16.3503  16.6652  17.4945  17.5459  18.4542  18.6264
    19.7013  19.8482  20.4510  20.4960  21.6561  21.8273  22.6728  22.8068
    24.0884  24.3078

     occupation numbers 
     1.0000   1.0000   1.0000   1.0000   1.0000   1.0000   1.0000   1.0000
     1.0000   1.0000   1.0000   1.0000   1.0000   0.0000   0.0000   0.0000
     0.0000   0.0000   0.0000   0.0000   0.0000   0.0000   0.0000   0.0000
     0.0000   0.0000   0.0000   0.0000   0.0000   0.0000   0.0000   0.0000
     0.0000   0.0000   0.0000   0.0000   0.0000   0.0000   0.0000   0.0000
     0.0000   0.0000   0.0000   0.0000   0.0000   0.0000   0.0000   0.0000
     0.0000   0.0000

          k = 0.1667 0.4330 0.0000 (  7040 PWs)   bands (ev):

   -59.8536 -34.4536 -34.3694 -34.2134 -12.0320 -11.7907  -5.0904  -4.5340
    -3.4111  -3.0403  -2.0032  -1.1789  -0.2084   2.7015   3.3796   3.6849
     5.1002   7.8752   8.4701   8.5495   9.2943   9.7052  10.6308  10.9001
    11.2768  12.4140  12.4178  13.3734  13.5819  13.9316  14.6070  15.1776
    15.4403  15.8651  16.2549  16.4197  17.4240  17.4764  18.1185  18.4035
    19.8366  19.8609  20.2849  20.4763  21.2553  21.7729  22.6035  22.7963
    23.9316  24.0474

     occupation numbers 
     1.0000   1.0000   1.0000   1.0000   1.0000   1.0000   1.0000   1.0000
[...]
    -3.3575  -3.0786  -1.9140  -0.9668  -0.3256   2.5352   3.2715   3.5119
     5.0709   7.6731   8.1561   8.6315   9.0320   9.5899  10.6963  10.8121
    11.3613  12.3292  12.4852  12.9787  13.2557  14.8036  14.8379  15.2028
    15.7293  16.2465  16.3503  16.6652  17.4945  17.5459  18.4542  18.6264
    19.7013  19.8482  20.4510  20.4960  21.6561  21.8273  22.6728  22.8068
    24.0884  24.3078

     occupation numbers 
     1.0000   1.0000   1.0000   1.0000   1.0000   1.0000   1.0000   1.0000
     1.0000   1.0000   1.0000   1.0000   1.0000   0.0000   0.0000   0.0000
     0.0000   0.0000   0.0000   0.0000   0.0000   0.0000   0.0000   0.0000
     0.0000   0.0000   0.0000   0.0000   0.0000   0.0000   0.0000   0.0000
     0.0000   0.0000   0.0000   0.0000   0.0000   0.0000   0.0000   0.0000
     0.0000   0.0000   0.0000   0.0000   0.0000   0.0000   0.0000   0.0000
     0.0000   0.0000

          k = 0.1667 0.4330 0.0000 (  7040 PWs)   bands (ev):

   -59.8536 -34.4536 -34.3694 -34.2134 -12.0320 -11.7907  -5.0904  -4.5340
    -3.4111  -3.0403  -2.0032  -1.1789  -0.2084   2.7015   3.3796   3.6849
     5.1002   7.8752   8.4701   8.5495   9.2943   9.7052  10.6308  10.9001
    11.2768  12.4140  12.4178  13.3734  13.5819  13.9316  14.6070  15.1776
    15.4403  15.8651  16.2549  16.4197  17.4240  17.4764  18.1185  18.4035
    19.8366  19.8609  20.2849  20.4763  21.2553  21.7729  22.6035  22.7963
    23.9316  24.0473

     occupation numbers 
     1.0000   1.0000   1.0000   1.0000   1.0000   1.0000   1.0000   1.0000
     1.0000   1.0000   1.0000   1.0000   1.0000   0.0000   0.0000   0.0000
     0.0000   0.0000   0.0000   0.0000   0.0000   0.0000   0.0000   0.0000
     0.0000   0.0000   0.0000   0.0000   0.0000   0.0000   0.0000   0.0000
     0.0000   0.0000   0.0000   0.0000   0.0000   0.0000   0.0000   0.0000
     0.0000   0.0000   0.0000   0.0000   0.0000   0.0000   0.0000   0.0000
     0.0000   0.0000

          k = 0.1667 0.4811 0.0000 (  7045 PWs)   bands (ev):

   -59.8502 -34.4789 -34.3624 -34.2287 -11.8463 -11.7161  -5.1863  -4.7833
    -3.5357  -2.9765  -2.0144  -1.3765  -0.0598   2.8020   3.5298   3.8312
     5.0887   7.4873   8.8855   8.9293   9.6343   9.9104  10.4476  10.9601
    11.3048  12.3290  12.3470  12.8323  13.7395  13.9363  14.3242  15.0622
    15.2743  15.9401  16.1451  16.3594  17.3473  17.4323  17.7558  18.2667
    19.5832  19.8213  20.5453  20.6235  20.9697  21.4141  22.7680  22.7960
    23.3380  23.8364

     occupation numbers 
     1.0000   1.0000   1.0000   1.0000   1.0000   1.0000   1.0000   1.0000
     1.0000   1.0000   1.0000   1.0000   1.0000   0.0000   0.0000   0.0000
     0.0000   0.0000   0.0000   0.0000   0.0000   0.0000   0.0000   0.0000
     0.0000   0.0000   0.0000   0.0000   0.0000   0.0000   0.0000   0.0000
     0.0000   0.0000   0.0000   0.0000   0.0000   0.0000   0.0000   0.0000
     0.0000   0.0000   0.0000   0.0000   0.0000   0.0000   0.0000   0.0000
     0.0000   0.0000

          k = 0.1667 0.5292 0.0000 (  7052 PWs)   bands (ev):

   -59.8483 -34.4948 -34.3580 -34.2385 -11.7239 -11.6672  -5.2469  -4.9398
    -3.6512  -2.9152  -2.0005  -1.5218   0.0748   2.8131   3.6963   3.9306
     5.0620   7.1238   9.2965   9.3473   9.9401  10.0099  10.3810  10.9569
    11.3091  11.8061  12.2612  12.6702  13.5183  13.8055  14.3264  15.1501
    15.2907  15.9365  16.1369  16.5939  17.2021  17.4225  17.6710  17.8815
    19.6156  19.7831  20.5658  20.6007  20.9573  21.0098  22.5034  23.0544
    23.1913  23.7460

     occupation numbers 
     1.0000   1.0000   1.0000   1.0000   1.0000   1.0000   1.0000   1.0000
     1.0000   1.0000   1.0000   1.0000   1.0000   0.0000   0.0000   0.0000
     0.0000   0.0000   0.0000   0.0000   0.0000   0.0000   0.0000   0.0000
     0.0000   0.0000   0.0000   0.0000   0.0000   0.0000   0.0000   0.0000
     0.0000   0.0000   0.0000   0.0000   0.0000   0.0000   0.0000   0.0000
     0.0000   0.0000   0.0000   0.0000   0.0000   0.0000   0.0000   0.0000
     0.0000   0.0000

          k = 0.1667 0.5774 0.0000 (  7054 PWs)   bands (ev):

   -59.8477 -34.5001 -34.3565 -34.2419 -11.6811 -11.6502  -5.2675  -4.9931
    -3.6964  -2.8892  -1.9934  -1.5765   0.1307   2.8031   3.7719   3.9663
     5.0486   6.9826   9.5233   9.6479   9.8392   9.9316  10.7553  10.9947
    10.9981  11.5335  12.2182  12.7441  13.3727  13.6396  14.4171  15.1552
    15.3791  15.9304  16.0495  16.9092  17.1171  17.4141  17.6325  17.6566
    19.6645  19.7913  20.4499  20.7063  20.7415  20.9599  22.4163  23.1183
    23.1853  23.7858

     occupation numbers 
     1.0000   1.0000   1.0000   1.0000   1.0000   1.0000   1.0000   1.0000
     1.0000   1.0000   1.0000   1.0000   1.0000   0.0000   0.0000   0.0000
     0.0000   0.0000   0.0000   0.0000   0.0000   0.0000   0.0000   0.0000
     0.0000   0.0000   0.0000   0.0000   0.0000   0.0000   0.0000   0.0000
     0.0000   0.0000   0.0000   0.0000   0.0000   0.0000   0.0000   0.0000
     0.0000   0.0000   0.0000   0.0000   0.0000   0.0000   0.0000   0.0000
     0.0000   0.0000

          k = 0.2083 0.3608 0.0000 (  7015 PWs)   bands (ev):

   -59.8570 -34.4122 -34.3787 -34.1987 -12.2719 -11.8859  -4.9248  -4.1816
    -3.3029  -3.1244  -2.0384  -0.9085  -0.3315   2.5068   3.2836   3.4297
     5.1066   7.6557   8.1511   8.7302   9.0775   9.7146  10.6763  10.7524
    11.6009  12.1740  12.6331  12.7844  13.0448  14.6498  15.1442  15.5058
    15.7052  15.8783  16.6232  16.7296  16.8967  17.5520  18.2536  18.9400
    19.7457  19.8468  20.1241  20.6672  21.7036  21.8367  22.4266  23.1790
    24.1120  24.2251

     occupation numbers 
     1.0000   1.0000   1.0000   1.0000   1.0000   1.0000   1.0000   1.0000
     1.0000   1.0000   1.0000   1.0000   1.0000   0.0000   0.0000   0.0000
     0.0000   0.0000   0.0000   0.0000   0.0000   0.0000   0.0000   0.0000
     0.0000   0.0000   0.0000   0.0000   0.0000   0.0000   0.0000   0.0000
     0.0000   0.0000   0.0000   0.0000   0.0000   0.0000   0.0000   0.0000
     0.0000   0.0000   0.0000   0.0000   0.0000   0.0000   0.0000   0.0000
     0.0000   0.0000

          k = 0.2083 0.4090 0.0000 (  7036 PWs)   bands (ev):

   -59.8536 -34.4387 -34.3699 -34.2260 -12.0468 -11.7920  -4.9941  -4.5210
    -3.2688  -3.0926  -2.2985  -1.0977  -0.2284   2.6582   3.3991   3.5332
     5.1922   8.0040   8.5548   8.5704   9.2371   9.8697  10.4439  10.9763
    11.7282  12.4172  12.6702  13.0935  13.2933  14.2186  14.5089  15.2624
    15.5067  15.5283  16.2294  16.3760  16.7729  17.0519  18.3944  18.6108
    19.5000  19.9171  20.2801  20.4391  21.2724  21.9951  22.4183  23.0570
    24.0332  24.0611

     occupation numbers 
     1.0000   1.0000   1.0000   1.0000   1.0000   1.0000   1.0000   1.0000
     1.0000   1.0000   1.0000   1.0000   1.0000   0.0000   0.0000   0.0000
     0.0000   0.0000   0.0000   0.0000   0.0000   0.0000   0.0000   0.0000
     0.0000   0.0000   0.0000   0.0000   0.0000   0.0000   0.0000   0.0000
     0.0000   0.0000   0.0000   0.0000   0.0000   0.0000   0.0000   0.0000
     0.0000   0.0000   0.0000   0.0000   0.0000   0.0000   0.0000   0.0000
     0.0000   0.0000

          k = 0.2083 0.4571 0.0000 (  7046 PWs)   bands (ev):

   -59.8503 -34.4588 -34.3624 -34.2497 -11.8523 -11.7105  -5.0388  -4.8046
    -3.3594  -3.0122  -2.4372  -1.3072  -0.0815   2.7450   3.5602   3.6227
     5.2508   7.8132   8.8028   8.9435   9.4191  10.1152  10.4128  11.2266
    11.7721  12.5032  12.5588  13.2895  13.5522  13.7725  14.1557  14.8169
    15.0742  15.4894  15.9831  16.1735  16.7698  16.8354  18.0834  18.4373
    19.4350  19.5721  20.3093  20.6062  21.0614  21.9027  22.3635  23.1551
    23.3844  24.0064

     occupation numbers 
     1.0000   1.0000   1.0000   1.0000   1.0000   1.0000   1.0000   1.0000
     1.0000   1.0000   1.0000   1.0000   1.0000   0.0000   0.0000   0.0000
     0.0000   0.0000   0.0000   0.0000   0.0000   0.0000   0.0000   0.0000
     0.0000   0.0000   0.0000   0.0000   0.0000   0.0000   0.0000   0.0000
     0.0000   0.0000   0.0000   0.0000   0.0000   0.0000   0.0000   0.0000
     0.0000   0.0000   0.0000   0.0000   0.0000   0.0000   0.0000   0.0000
     0.0000   0.0000

          k = 0.2083 0.5052 0.0000 (  7052 PWs)   bands (ev):

   -59.8479 -34.4722 -34.3570 -34.2673 -11.7081 -11.6498  -5.0560  -5.0067
    -3.5218  -2.9164  -2.4726  -1.4960   0.0818   2.7230   3.6845   3.7653
     5.2865   7.4391   9.0654   9.3024   9.7461  10.4105  10.5789  11.2660
    11.7913  12.3485  12.3751  12.8364  13.5412  13.8637  14.2027  14.5811
    14.9653  15.1127  15.9760  16.3425  16.6972  16.7382  17.7062  18.1502
    19.4258  19.4271  20.3006  20.3986  21.0566  21.4822  22.3498  23.0440
    23.4767  24.1163

     occupation numbers 
     1.0000   1.0000   1.0000   1.0000   1.0000   1.0000   1.0000   1.0000
     1.0000   1.0000   1.0000   1.0000   1.0000   0.0000   0.0000   0.0000
     0.0000   0.0000   0.0000   0.0000   0.0000   0.0000   0.0000   0.0000
     0.0000   0.0000   0.0000   0.0000   0.0000   0.0000   0.0000   0.0000
     0.0000   0.0000   0.0000   0.0000   0.0000   0.0000   0.0000   0.0000
     0.0000   0.0000   0.0000   0.0000   0.0000   0.0000   0.0000   0.0000
     0.0000   0.0000

          k = 0.2083 0.5533 0.0000 (  7046 PWs)   bands (ev):

   -59.8460 -34.4787 -34.3542 -34.2764 -11.6310 -11.6173  -5.1116  -5.0568
    -3.6377  -2.8471  -2.4749  -1.6138   0.1962   2.6689   3.7152   3.9163
     5.3027   7.1950   9.1549   9.5704  10.1205  10.5868  10.8753  11.1735
    11.5287  11.9372  12.3969  12.8234  13.3157  13.8309  14.1074  14.8065
    14.8727  15.0891  15.8304  16.5128  16.5808  16.9850  17.4899  17.7572
    19.4024  19.4552  20.1109  20.4177  20.9592  21.0538  22.5435  22.8719
    23.5876  24.3479

     occupation numbers 
     1.0000   1.0000   1.0000   1.0000   1.0000   1.0000   1.0000   1.0000
     1.0000   1.0000   1.0000   1.0000   1.0000   0.0000   0.0000   0.0000
     0.0000   0.0000   0.0000   0.0000   0.0000   0.0000   0.0000   0.0000
     0.0000   0.0000   0.0000   0.0000   0.0000   0.0000   0.0000   0.0000
     0.0000   0.0000   0.0000   0.0000   0.0000   0.0000   0.0000   0.0000
     0.0000   0.0000   0.0000   0.0000   0.0000   0.0000   0.0000   0.0000
     0.0000   0.0000

          k = 0.2500 0.4330 0.0000 (  7037 PWs)   bands (ev):

   -59.8497 -34.4503 -34.3623 -34.2584 -11.8545 -11.7085  -4.9809  -4.8123
    -3.2355  -3.0258  -2.6522  -1.2803  -0.0910   2.7241   3.5481   3.5710
     5.3114   7.9787   8.7397   8.9457   9.3062  10.1812  10.4116  11.3413
    12.0738  12.5926  12.6837  13.2951  13.4464  13.7806  14.2261  14.3077
    15.1609  15.6914  15.8105  15.8900  16.4906  16.7286  18.4287  18.4610
    19.0307  19.5539  20.2652  20.7032  21.0919  22.1350  22.2144  23.4064
    23.4619  23.4974

     occupation numbers 
     1.0000   1.0000   1.0000   1.0000   1.0000   1.0000   1.0000   1.0000
     1.0000   1.0000   1.0000   1.0000   1.0000   0.0000   0.0000   0.0000
     0.0000   0.0000   0.0000   0.0000   0.0000   0.0000   0.0000   0.0000
     0.0000   0.0000   0.0000   0.0000   0.0000   0.0000   0.0000   0.0000
     0.0000   0.0000   0.0000   0.0000   0.0000   0.0000   0.0000   0.0000
     0.0000   0.0000   0.0000   0.0000   0.0000   0.0000   0.0000   0.0000
     0.0000   0.0000

          k = 0.2500 0.4811 0.0000 (  7043 PWs)   bands (ev):

   -59.8471 -34.4554 -34.3566 -34.2869 -11.7004 -11.6403  -5.0436  -4.9283
    -3.3538  -2.9169  -2.8455  -1.4785   0.0824   2.6688   3.5510   3.8013
     5.4181   7.7303   8.7337   9.3014   9.6752  10.5563  10.6896  11.6420
    12.2306  12.5029  12.7133  13.2311  13.2936  13.7344  13.9989  14.1084
    14.6096  15.2750  15.4711  15.8487  16.4960  16.6369  18.0461  18.2525
    18.8294  19.2849  20.2389  20.4585  21.0859  21.9930  22.0658  23.1580
    23.2166  24.1075

     occupation numbers 
     1.0000   1.0000   1.0000   1.0000   1.0000   1.0000   1.0000   1.0000
     1.0000   1.0000   1.0000   1.0000   1.0000   0.0000   0.0000   0.0000
     0.0000   0.0000   0.0000   0.0000   0.0000   0.0000   0.0000   0.0000
     0.0000   0.0000   0.0000   0.0000   0.0000   0.0000   0.0000   0.0000
     0.0000   0.0000   0.0000   0.0000   0.0000   0.0000   0.0000   0.0000
     0.0000   0.0000   0.0000   0.0000   0.0000   0.0000   0.0000   0.0000
     0.0000   0.0000

          k = 0.2500 0.5292 0.0000 (  7041 PWs)   bands (ev):

   -59.8450 -34.4564 -34.3529 -34.3070 -11.6003 -11.5955  -5.1912  -4.8563
    -3.5617  -2.8836  -2.8086  -1.6438   0.2434   2.5572   3.5476   4.0109
     5.4921   7.4753   8.6702   9.5905  10.2253  10.9512  11.0285  11.5974
    12.1454  12.4193  12.4421  12.9316  13.2227  13.8565  14.0640  14.0825
    14.3129  14.9410  15.4003  15.7386  16.4489  16.8892  17.6248  17.9405
    18.7854  19.0701  20.0530  20.4180  20.8619  21.5687  22.1523  23.1298
    23.3155  24.5693

     occupation numbers 
     1.0000   1.0000   1.0000   1.0000   1.0000   1.0000   1.0000   1.0000
     1.0000   1.0000   1.0000   1.0000   1.0000   0.0000   0.0000   0.0000
     0.0000   0.0000   0.0000   0.0000   0.0000   0.0000   0.0000   0.0000
     0.0000   0.0000   0.0000   0.0000   0.0000   0.0000   0.0000   0.0000
     0.0000   0.0000   0.0000   0.0000   0.0000   0.0000   0.0000   0.0000
     0.0000   0.0000   0.0000   0.0000   0.0000   0.0000   0.0000   0.0000
     0.0000   0.0000

          k = 0.2500 0.5774 0.0000 (  7045 PWs)   bands (ev):

   -59.8446 -34.4563 -34.3517 -34.3145 -11.5798 -11.5655  -5.2419  -4.8189
    -3.6577  -2.8865  -2.7601  -1.7120   0.3121   2.5010   3.5454   4.0971
     5.5184   7.3682   8.6514   9.7160  10.5402  11.2223  11.3101  11.3810
    11.6736  12.4151  12.5155  12.8699  13.1280  13.9136  14.0394  14.0646
    14.2699  14.8385  15.4380  15.7247  16.3604  17.1609  17.4256  17.7261
    18.7760  18.9851  19.8249  20.6499  20.7889  21.2160  22.2291  23.1372
    23.3885  24.6415

     occupation numbers 
     1.0000   1.0000   1.0000   1.0000   1.0000   1.0000   1.0000   1.0000
     1.0000   1.0000   1.0000   1.0000   1.0000   0.0000   0.0000   0.0000
     0.0000   0.0000   0.0000   0.0000   0.0000   0.0000   0.0000   0.0000
     0.0000   0.0000   0.0000   0.0000   0.0000   0.0000   0.0000   0.0000
     0.0000   0.0000   0.0000   0.0000   0.0000   0.0000   0.0000   0.0000
     0.0000   0.0000   0.0000   0.0000   0.0000   0.0000   0.0000   0.0000
     0.0000   0.0000

          k = 0.2917 0.5052 0.0000 (  7043 PWs)   bands (ev):

   -59.8449 -34.4455 -34.3524 -34.3209 -11.5900 -11.5878  -5.2192  -4.7670
    -3.5011  -3.0784  -2.7933  -1.6552   0.2613   2.5138   3.4889   4.0435
     5.5623   7.6600   8.4159   9.5971  10.2392  11.0249  11.1061  11.9526
    12.4007  12.4712  12.7111  13.1211  13.1995  13.2849  13.8221  13.9804
    14.5432  14.9408  15.0080  15.3445  16.4812  16.8329  17.8930  17.9869
    18.3209  18.9773  20.0633  20.4260  20.7761  22.0044  22.0233  22.6337
    23.5320  24.7591

     occupation numbers 
     1.0000   1.0000   1.0000   1.0000   1.0000   1.0000   1.0000   1.0000
     1.0000   1.0000   1.0000   1.0000   1.0000   0.0000   0.0000   0.0000
     0.0000   0.0000   0.0000   0.0000   0.0000   0.0000   0.0000   0.0000
     0.0000   0.0000   0.0000   0.0000   0.0000   0.0000   0.0000   0.0000
     0.0000   0.0000   0.0000   0.0000   0.0000   0.0000   0.0000   0.0000
     0.0000   0.0000   0.0000   0.0000   0.0000   0.0000   0.0000   0.0000
     0.0000   0.0000

          k = 0.2917 0.5533 0.0000 (  7041 PWs)   bands (ev):

   -59.8437 -34.4350 -34.3501 -34.3440 -11.5596 -11.5318  -5.3119  -4.6101
    -3.7301  -3.1234  -2.6968  -1.7794   0.3890   2.3862   3.4533   4.1980
     5.6451   7.6042   8.2322   9.7862  10.7625  11.4130  11.5081  11.9113
    12.1311  12.3505  12.5854  13.0442  13.2228  13.2296  13.6829  14.1882
    14.2557  14.7412  14.8922  15.1055  16.4824  17.0974  17.5493  17.8356
    18.1533  18.7334  19.6872  20.5846  20.8208  21.5679  22.1055  22.4790
    23.8794  24.8289

     occupation numbers 
     1.0000   1.0000   1.0000   1.0000   1.0000   1.0000   1.0000   1.0000
     1.0000   1.0000   1.0000   1.0000   1.0000   0.0000   0.0000   0.0000
     0.0000   0.0000   0.0000   0.0000   0.0000   0.0000   0.0000   0.0000
     0.0000   0.0000   0.0000   0.0000   0.0000   0.0000   0.0000   0.0000
     0.0000   0.0000   0.0000   0.0000   0.0000   0.0000   0.0000   0.0000
     0.0000   0.0000   0.0000   0.0000   0.0000   0.0000   0.0000   0.0000
     0.0000   0.0000

          k = 0.3333 0.5774 0.0000 (  7047 PWs)   bands (ev):

   -59.8436 -34.4205 -34.3640 -34.3493 -11.5470 -11.5084  -5.3537  -4.4494
    -3.8896  -3.1806  -2.6450  -1.8392   0.4512   2.3115   3.4200   4.2683
     5.7014   7.7713   7.9529   9.8605  11.0241  11.5810  11.9180  12.0546
    12.1607  12.2210  12.3410  12.8863  13.1497  13.2812  13.7981  13.9453
    14.5733  14.6474  14.6620  14.6701  16.6087  17.1083  17.5242  17.8382
    17.8809  18.5797  19.5356  20.4592  21.2110  21.4241  22.1111  22.1496
    24.3202  24.5494

     occupation numbers 
     1.0000   1.0000   1.0000   1.0000   1.0000   1.0000   1.0000   1.0000
     1.0000   1.0000   1.0000   1.0000   1.0000   0.0000   0.0000   0.0000
     0.0000   0.0000   0.0000   0.0000   0.0000   0.0000   0.0000   0.0000
     0.0000   0.0000   0.0000   0.0000   0.0000   0.0000   0.0000   0.0000
     0.0000   0.0000   0.0000   0.0000   0.0000   0.0000   0.0000   0.0000
     0.0000   0.0000   0.0000   0.0000   0.0000   0.0000   0.0000   0.0000
     0.0000   0.0000

     the Fermi energy is     1.8903 ev
     (compare with:     1.6414 eV, computed in scf)

     Writing output data file run_output/MoS2.save/

     init_run     :      5.34s CPU      5.50s WALL (       1 calls)
     electrons    :     39.07s CPU     44.15s WALL (       1 calls)

     Called by init_run:
     wfcinit      :      0.00s CPU      0.01s WALL (       1 calls)
     wfcinit:atom :      0.01s CPU      0.01s WALL (     122 calls)
     wfcinit:wfcr :      1.94s CPU      1.98s WALL (     122 calls)
     potinit      :      0.01s CPU      0.02s WALL (       1 calls)
     hinit0       :      0.05s CPU      0.05s WALL (       1 calls)

     Called by electrons:
     c_bands      :     39.06s CPU     44.13s WALL (       1 calls)
     v_of_rho     :      0.00s CPU      0.00s WALL (       1 calls)
     v_h          :      0.00s CPU      0.00s WALL (       1 calls)
     v_xc         :      0.00s CPU      0.00s WALL (       1 calls)

     Called by c_bands:
     init_us_2    :      0.01s CPU      0.01s WALL (     122 calls)
     cegterg      :     36.78s CPU     37.09s WALL (     125 calls)

     Called by sum_band:

     Called by *egterg:
     cdiaghg      :     19.02s CPU     18.97s WALL (    1812 calls)
     cegterg:over :      2.95s CPU      3.02s WALL (    1690 calls)
     cegterg:upda :      1.64s CPU      1.66s WALL (    1690 calls)
     cegterg:last :      1.15s CPU      1.14s WALL (     369 calls)
     h_psi        :     12.22s CPU     12.43s WALL (    1937 calls)
     g_psi        :      0.03s CPU      0.03s WALL (    1690 calls)

     Called by h_psi:
     h_psi:calbec :      0.58s CPU      0.58s WALL (    1937 calls)
     vloc_psi     :     11.33s CPU     11.53s WALL (    1937 calls)
     add_vuspsi   :      0.29s CPU      0.30s WALL (    1937 calls)

     General routines
     calbec       :      0.58s CPU      0.58s WALL (    1937 calls)
     fft          :      0.01s CPU      0.01s WALL (       5 calls)
     fftw         :     11.05s CPU     11.23s WALL (  101766 calls)
     davcio       :      0.00s CPU      4.74s WALL (     244 calls)

     Parallel routines
     fft_scatt_xy :      0.40s CPU      0.41s WALL (  101771 calls)
     fft_scatt_yz :      7.01s CPU      7.20s WALL (  101771 calls)

     PWSCF        :     58.71s CPU   1m15.27s WALL


   This run was terminated on:  19:21:40   6May2021            

=------------------------------------------------------------------------------=
   JOB DONE.
=------------------------------------------------------------------------------=
