
     Program PWSCF v.6.7MaX starts on  9Nov2021 at 16:52:17 

     This program is part of the open-source Quantum ESPRESSO suite
     for quantum simulation of materials; please cite
         "P. Giannozzi et al., J. Phys.:Condens. Matter 21 395502 (2009);
         "P. Giannozzi et al., J. Phys.:Condens. Matter 29 465901 (2017);
          URL http://www.quantum-espresso.org", 
     in publications or presentations arising from this work. More details at
     http://www.quantum-espresso.org/quote

     Parallel version (MPI), running on    56 processors

     MPI processes distributed on     2 nodes
     K-points division:     npool     =       8
     R & G space division:  proc/nbgrp/npool/nimage =       7
     Waiting for input...
     Reading input from standard input

     Current dimensions of program PWSCF are:
     Max number of different atomic species (ntypx) = 10
     Max number of k-points (npk) =  40000
     Max angular momentum in pseudopotentials (lmaxx) =  3

     Subspace diagonalization in iterative solution of the eigenvalue problem:
     one sub-group per band group will be used
     scalapack distributed-memory algorithm (size of sub-group:  2*  2 procs)

     Message from routine setup:
     using ibrav=0 with symmetry is DISCOURAGED, use correct ibrav instead

     Parallelization info
     --------------------
     sticks:   dense  smooth     PW     G-vecs:    dense   smooth      PW
     Min         152     152     44                 3355     3355     545
     Max         153     153     45                 3360     3360     550
     Sum        1069    1069    313                23505    23505    3839



     bravais-lattice index     =            0
     lattice parameter (alat)  =       7.4893  a.u.
     unit-cell volume          =     297.0321 (a.u.)^3
     number of atoms/cell      =            2
     number of atomic types    =            2
     number of electrons       =         8.00
     number of Kohn-Sham states=           18
     kinetic-energy cutoff     =      70.0000  Ry
     charge density cutoff     =     280.0000  Ry
     scf convergence threshold =      1.0E-08
     mixing beta               =       0.7000
     number of iterations used =            8  plain     mixing
     Exchange-correlation=  SLA  PZ   NOGX NOGC
                           (   1   1   0   0   0   0   0)

     celldm(1)=   7.489269  celldm(2)=   0.000000  celldm(3)=   0.000000
     celldm(4)=   0.000000  celldm(5)=   0.000000  celldm(6)=   0.000000

     crystal axes: (cart. coord. in units of alat)
               a(1) = (   0.000000   0.707107   0.707107 )  
               a(2) = (   0.707107   0.000000   0.707107 )  
               a(3) = (   0.707107   0.707107  -0.000000 )  

     reciprocal axes: (cart. coord. in units 2 pi/alat)
               b(1) = ( -0.707107  0.707107  0.707107 )  
               b(2) = (  0.707107 -0.707107  0.707107 )  
               b(3) = (  0.707107  0.707107 -0.707107 )  


     PseudoPot. # 1 for As read from file:
     PPs/As.pz-bhs.UPF
     MD5 check sum: 451cd3365afcfc94d28b1934951c34a8
     Pseudo is Norm-conserving, Zval =  5.0
     Generated by new atomic code, or converted to UPF format
     Using radial grid of  525 points,  2 beta functions with: 
                l(1) =   0
                l(2) =   1

     PseudoPot. # 2 for Ga read from file:
     PPs/Ga_hamlu.fhi.UPF
     MD5 check sum: 4ad1663a8a964d7f0e56f5e6e9567420
     Pseudo is Norm-conserving + core correction, Zval =  3.0
     Generated by new atomic code, or converted to UPF format
     Using radial grid of  529 points,  2 beta functions with: 
                l(1) =   1
                l(2) =   2

     atomic species   valence    mass     pseudopotential
        As             5.00    74.92160     As( 1.00)
        Ga             3.00    69.72300     Ga( 1.00)

     24 Sym. Ops. (no inversion) found


                                    s                        frac. trans.

      isym =  1     identity                                     

 cryst.   s( 1) = (     1          0          0      )
                  (     0          1          0      )
                  (     0          0          1      )

 cart.    s( 1) = (  1.0000000 -0.0000000  0.0000000 )
                  ( -0.0000000  1.0000000  0.0000000 )
                  ( -0.0000000  0.0000000  1.0000000 )


      isym =  2     180 deg rotation - cart. axis [0,0,1]        

 cryst.   s( 2) = (     0          1         -1      )
                  (     1          0         -1      )
                  (     0          0         -1      )

 cart.    s( 2) = ( -1.0000000  0.0000000  0.0000000 )
                  (  0.0000000 -1.0000000  0.0000000 )
                  (  0.0000000 -0.0000000  1.0000000 )


      isym =  3     180 deg rotation - cart. axis [0,1,0]        

 cryst.   s( 3) = (     0         -1          1      )
                  (     0         -1          0      )
                  (     1         -1          0      )

 cart.    s( 3) = ( -1.0000000 -0.0000000 -0.0000000 )
                  (  0.0000000  1.0000000 -0.0000000 )
                  (  0.0000000  0.0000000 -1.0000000 )


      isym =  4     180 deg rotation - cart. axis [1,0,0]        

 cryst.   s( 4) = (    -1          0          0      )
                  (    -1          0          1      )
                  (    -1          1          0      )

 cart.    s( 4) = (  1.0000000  0.0000000 -0.0000000 )
                  ( -0.0000000 -1.0000000 -0.0000000 )
                  ( -0.0000000 -0.0000000 -1.0000000 )


      isym =  5     120 deg rotation - cart. axis [-1,-1,-1]     

 cryst.   s( 5) = (     0          0          1      )
                  (     1          0          0      )
                  (     0          1          0      )

 cart.    s( 5) = (  0.0000000  1.0000000 -0.0000000 )
                  (  0.0000000 -0.0000000  1.0000000 )
                  (  1.0000000 -0.0000000  0.0000000 )


      isym =  6     120 deg rotation - cart. axis [-1,1,1]       

 cryst.   s( 6) = (     1         -1          0      )
                  (     0         -1          1      )
                  (     0         -1          0      )

 cart.    s( 6) = ( -0.0000000 -1.0000000 -0.0000000 )
                  ( -0.0000000  0.0000000  1.0000000 )
                  ( -1.0000000  0.0000000  0.0000000 )


      isym =  7     120 deg rotation - cart. axis [1,1,-1]       

 cryst.   s( 7) = (    -1          1          0      )
                  (    -1          0          0      )
                  (    -1          0          1      )

 cart.    s( 7) = ( -0.0000000  1.0000000  0.0000000 )
                  ( -0.0000000 -0.0000000 -1.0000000 )
                  ( -1.0000000 -0.0000000 -0.0000000 )


      isym =  8     120 deg rotation - cart. axis [1,-1,1]       

 cryst.   s( 8) = (     0          0         -1      )
                  (     0          1         -1      )
                  (     1          0         -1      )

 cart.    s( 8) = (  0.0000000 -1.0000000  0.0000000 )
                  (  0.0000000  0.0000000 -1.0000000 )
                  (  1.0000000  0.0000000 -0.0000000 )


      isym =  9     120 deg rotation - cart. axis [1,1,1]        

 cryst.   s( 9) = (     0          1          0      )
                  (     0          0          1      )
                  (     1          0          0      )

 cart.    s( 9) = ( -0.0000000  0.0000000  1.0000000 )
                  (  1.0000000  0.0000000 -0.0000000 )
                  (  0.0000000  1.0000000 -0.0000000 )


      isym = 10     120 deg rotation - cart. axis [-1,1,-1]      

 cryst.   s(10) = (    -1          0          1      )
                  (    -1          1          0      )
                  (    -1          0          0      )

 cart.    s(10) = (  0.0000000 -0.0000000  1.0000000 )
                  ( -1.0000000 -0.0000000 -0.0000000 )
                  ( -0.0000000 -1.0000000 -0.0000000 )


      isym = 11     120 deg rotation - cart. axis [1,-1,-1]      

 cryst.   s(11) = (     1          0         -1      )
                  (     0          0         -1      )
                  (     0          1         -1      )

 cart.    s(11) = (  0.0000000  0.0000000 -1.0000000 )
                  ( -1.0000000  0.0000000  0.0000000 )
                  ( -0.0000000  1.0000000  0.0000000 )


      isym = 12     120 deg rotation - cart. axis [-1,-1,1]      

 cryst.   s(12) = (     0         -1          0      )
                  (     1         -1          0      )
                  (     0         -1          1      )

 cart.    s(12) = ( -0.0000000 -0.0000000 -1.0000000 )
                  (  1.0000000 -0.0000000  0.0000000 )
                  (  0.0000000 -1.0000000  0.0000000 )


      isym = 13     inv. 180 deg rotation - cart. axis [1,1,0]   

 cryst.   s(13) = (     1          0         -1      )
                  (     0          1         -1      )
                  (     0          0         -1      )

 cart.    s(13) = (  0.0000000 -1.0000000  0.0000000 )
                  ( -1.0000000  0.0000000  0.0000000 )
                  ( -0.0000000  0.0000000  1.0000000 )


      isym = 14     inv. 180 deg rotation - cart. axis [1,-1,0]  

 cryst.   s(14) = (     0          1          0      )
                  (     1          0          0      )
                  (     0          0          1      )

 cart.    s(14) = ( -0.0000000  1.0000000  0.0000000 )
                  (  1.0000000 -0.0000000  0.0000000 )
                  (  0.0000000 -0.0000000  1.0000000 )


      isym = 15     inv.  90 deg rotation - cart. axis [0,0,-1]  

 cryst.   s(15) = (     0         -1          0      )
                  (     0         -1          1      )
                  (     1         -1          0      )

 cart.    s(15) = ( -0.0000000 -1.0000000 -0.0000000 )
                  (  1.0000000  0.0000000 -0.0000000 )
                  (  0.0000000  0.0000000 -1.0000000 )


      isym = 16     inv.  90 deg rotation - cart. axis [0,0,1]   

 cryst.   s(16) = (    -1          0          1      )
                  (    -1          0          0      )
                  (    -1          1          0      )

 cart.    s(16) = (  0.0000000  1.0000000 -0.0000000 )
                  ( -1.0000000 -0.0000000 -0.0000000 )
                  ( -0.0000000 -0.0000000 -1.0000000 )


      isym = 17     inv. 180 deg rotation - cart. axis [1,0,1]   

 cryst.   s(17) = (     1         -1          0      )
                  (     0         -1          0      )
                  (     0         -1          1      )

 cart.    s(17) = ( -0.0000000 -0.0000000 -1.0000000 )
                  ( -0.0000000  1.0000000  0.0000000 )
                  ( -1.0000000  0.0000000  0.0000000 )


      isym = 18     inv. 180 deg rotation - cart. axis [-1,0,1]  

 cryst.   s(18) = (     0          0          1      )
                  (     0          1          0      )
                  (     1          0          0      )

 cart.    s(18) = (  0.0000000 -0.0000000  1.0000000 )
                  (  0.0000000  1.0000000 -0.0000000 )
                  (  1.0000000  0.0000000 -0.0000000 )


      isym = 19     inv.  90 deg rotation - cart. axis [0,1,0]   

 cryst.   s(19) = (     0          0         -1      )
                  (     1          0         -1      )
                  (     0          1         -1      )

 cart.    s(19) = (  0.0000000  0.0000000 -1.0000000 )
                  (  0.0000000 -1.0000000  0.0000000 )
                  (  1.0000000 -0.0000000  0.0000000 )


      isym = 20     inv.  90 deg rotation - cart. axis [0,-1,0]  

 cryst.   s(20) = (    -1          1          0      )
                  (    -1          0          1      )
                  (    -1          0          0      )

 cart.    s(20) = ( -0.0000000  0.0000000  1.0000000 )
                  ( -0.0000000 -1.0000000 -0.0000000 )
                  ( -1.0000000 -0.0000000 -0.0000000 )


      isym = 21     inv. 180 deg rotation - cart. axis [0,1,1]   

 cryst.   s(21) = (    -1          0          0      )
                  (    -1          1          0      )
                  (    -1          0          1      )

 cart.    s(21) = (  1.0000000 -0.0000000  0.0000000 )
                  ( -0.0000000 -0.0000000 -1.0000000 )
                  ( -0.0000000 -1.0000000 -0.0000000 )


      isym = 22     inv. 180 deg rotation - cart. axis [0,1,-1]  

 cryst.   s(22) = (     1          0          0      )
                  (     0          0          1      )
                  (     0          1          0      )

 cart.    s(22) = (  1.0000000  0.0000000 -0.0000000 )
                  ( -0.0000000  0.0000000  1.0000000 )
                  ( -0.0000000  1.0000000  0.0000000 )


      isym = 23     inv.  90 deg rotation - cart. axis [-1,0,0]  

 cryst.   s(23) = (     0          1         -1      )
                  (     0          0         -1      )
                  (     1          0         -1      )

 cart.    s(23) = ( -1.0000000  0.0000000  0.0000000 )
                  (  0.0000000  0.0000000 -1.0000000 )
                  (  0.0000000  1.0000000 -0.0000000 )


      isym = 24     inv.  90 deg rotation - cart. axis [1,0,0]   

 cryst.   s(24) = (     0         -1          1      )
                  (     1         -1          0      )
                  (     0         -1          0      )

 cart.    s(24) = ( -1.0000000 -0.0000000 -0.0000000 )
                  (  0.0000000 -0.0000000  1.0000000 )
                  (  0.0000000 -1.0000000  0.0000000 )


   Cartesian axes

     site n.     atom                  positions (alat units)
         1           Ga  tau(   1) = (  -0.0000000   0.0000000   0.0000000  )
         2           As  tau(   2) = (   0.3535534   1.0606602   1.0606602  )

   Crystallographic axes

     site n.     atom                  positions (cryst. coord.)
         1           Ga  tau(   1) = (  0.0000000  0.0000000  0.0000000  )
         2           As  tau(   2) = (  1.2500000  0.2500000  0.2500000  )

     number of k points=    60
                       cart. coord. in units 2pi/alat
        k(    1) = (   0.0441942   0.0441942   0.0441942), wk =   0.0078125
        k(    2) = (   0.1325825   0.1325825  -0.0441942), wk =   0.0234375
        k(    3) = (   0.2209709   0.2209709  -0.1325825), wk =   0.0234375
        k(    4) = (   0.3093592   0.3093592  -0.2209709), wk =   0.0234375
        k(    5) = (  -0.3093592  -0.3093592   0.3977476), wk =   0.0234375
        k(    6) = (  -0.2209709  -0.2209709   0.3093592), wk =   0.0234375
        k(    7) = (  -0.1325825  -0.1325825   0.2209709), wk =   0.0234375
        k(    8) = (  -0.0441942  -0.0441942   0.1325825), wk =   0.0234375
        k(    9) = (   0.2209709   0.0441942   0.0441942), wk =   0.0234375
        k(   10) = (   0.3093592   0.1325825  -0.0441942), wk =   0.0468750
        k(   11) = (   0.3977476   0.2209709  -0.1325825), wk =   0.0468750
        k(   12) = (  -0.2209709  -0.3977476   0.4861359), wk =   0.0468750
        k(   13) = (  -0.1325825  -0.3093592   0.3977476), wk =   0.0468750
        k(   14) = (  -0.0441942  -0.2209709   0.3093592), wk =   0.0468750
        k(   15) = (   0.0441942  -0.1325825   0.2209709), wk =   0.0468750
        k(   16) = (   0.3977476   0.0441942   0.0441942), wk =   0.0234375
        k(   17) = (   0.4861359   0.1325825  -0.0441942), wk =   0.0468750
        k(   18) = (  -0.1325825  -0.4861359   0.5745243), wk =   0.0468750
        k(   19) = (  -0.0441942  -0.3977476   0.4861359), wk =   0.0468750
        k(   20) = (   0.0441942  -0.3093592   0.3977476), wk =   0.0468750
        k(   21) = (   0.1325825  -0.2209709   0.3093592), wk =   0.0468750
        k(   22) = (   0.5745243   0.0441942   0.0441942), wk =   0.0234375
        k(   23) = (  -0.0441942  -0.5745243   0.6629126), wk =   0.0468750
        k(   24) = (   0.0441942  -0.4861359   0.5745243), wk =   0.0468750
        k(   25) = (   0.1325825  -0.3977476   0.4861359), wk =   0.0468750
        k(   26) = (   0.2209709  -0.3093592   0.3977476), wk =   0.0468750
        k(   27) = (  -0.6629126   0.0441942   0.0441942), wk =   0.0234375
        k(   28) = (  -0.5745243   0.1325825  -0.0441942), wk =   0.0468750
        k(   29) = (  -0.4861359   0.2209709  -0.1325825), wk =   0.0468750
        k(   30) = (  -0.4861359   0.0441942   0.0441942), wk =   0.0234375
        k(   31) = (  -0.3977476   0.1325825  -0.0441942), wk =   0.0468750
        k(   32) = (  -0.3093592   0.0441942   0.0441942), wk =   0.0234375
        k(   33) = (   0.1325825   0.1325825   0.1325825), wk =   0.0078125
        k(   34) = (   0.2209709   0.2209709   0.0441942), wk =   0.0234375
        k(   35) = (   0.3093592   0.3093592  -0.0441942), wk =   0.0234375
        k(   36) = (  -0.3093592  -0.3093592   0.5745243), wk =   0.0234375
        k(   37) = (  -0.2209709  -0.2209709   0.4861359), wk =   0.0234375
        k(   38) = (  -0.1325825  -0.1325825   0.3977476), wk =   0.0234375
        k(   39) = (   0.3093592   0.1325825   0.1325825), wk =   0.0234375
        k(   40) = (   0.3977476   0.2209709   0.0441942), wk =   0.0468750
        k(   41) = (  -0.2209709  -0.3977476   0.6629126), wk =   0.0468750
        k(   42) = (  -0.1325825  -0.3093592   0.5745243), wk =   0.0468750
        k(   43) = (  -0.0441942  -0.2209709   0.4861359), wk =   0.0468750
        k(   44) = (   0.4861359   0.1325825   0.1325825), wk =   0.0234375
        k(   45) = (  -0.1325825  -0.4861359   0.7513010), wk =   0.0468750
        k(   46) = (  -0.0441942  -0.3977476   0.6629126), wk =   0.0468750
        k(   47) = (   0.0441942  -0.3093592   0.5745243), wk =   0.0468750
        k(   48) = (  -0.7513010   0.1325825   0.1325825), wk =   0.0234375
        k(   49) = (  -0.6629126   0.2209709   0.0441942), wk =   0.0468750
        k(   50) = (  -0.5745243   0.1325825   0.1325825), wk =   0.0234375
        k(   51) = (   0.2209709   0.2209709   0.2209709), wk =   0.0078125
        k(   52) = (   0.3093592   0.3093592   0.1325825), wk =   0.0234375
        k(   53) = (  -0.3093592  -0.3093592   0.7513010), wk =   0.0234375
        k(   54) = (  -0.2209709  -0.2209709   0.6629126), wk =   0.0234375
        k(   55) = (   0.3977476   0.2209709   0.2209709), wk =   0.0234375
        k(   56) = (  -0.2209709  -0.3977476   0.8396893), wk =   0.0468750
        k(   57) = (  -0.1325825  -0.3093592   0.7513010), wk =   0.0468750
        k(   58) = (  -0.8396893   0.2209709   0.2209709), wk =   0.0234375
        k(   59) = (   0.3093592   0.3093592   0.3093592), wk =   0.0078125
        k(   60) = (  -0.3093592  -0.3093592   0.9280777), wk =   0.0234375

                       cryst. coord.
        k(    1) = (   0.0625000   0.0625000   0.0625000), wk =   0.0078125
        k(    2) = (   0.0625000   0.0625000   0.1875000), wk =   0.0234375
        k(    3) = (   0.0625000   0.0625000   0.3125000), wk =   0.0234375
        k(    4) = (   0.0625000   0.0625000   0.4375000), wk =   0.0234375
        k(    5) = (   0.0625000   0.0625000  -0.4375000), wk =   0.0234375
        k(    6) = (   0.0625000   0.0625000  -0.3125000), wk =   0.0234375
        k(    7) = (   0.0625000   0.0625000  -0.1875000), wk =   0.0234375
        k(    8) = (   0.0625000   0.0625000  -0.0625000), wk =   0.0234375
        k(    9) = (   0.0625000   0.1875000   0.1875000), wk =   0.0234375
        k(   10) = (   0.0625000   0.1875000   0.3125000), wk =   0.0468750
        k(   11) = (   0.0625000   0.1875000   0.4375000), wk =   0.0468750
        k(   12) = (   0.0625000   0.1875000  -0.4375000), wk =   0.0468750
        k(   13) = (   0.0625000   0.1875000  -0.3125000), wk =   0.0468750
        k(   14) = (   0.0625000   0.1875000  -0.1875000), wk =   0.0468750
        k(   15) = (   0.0625000   0.1875000  -0.0625000), wk =   0.0468750
        k(   16) = (   0.0625000   0.3125000   0.3125000), wk =   0.0234375
        k(   17) = (   0.0625000   0.3125000   0.4375000), wk =   0.0468750
        k(   18) = (   0.0625000   0.3125000  -0.4375000), wk =   0.0468750
        k(   19) = (   0.0625000   0.3125000  -0.3125000), wk =   0.0468750
        k(   20) = (   0.0625000   0.3125000  -0.1875000), wk =   0.0468750
        k(   21) = (   0.0625000   0.3125000  -0.0625000), wk =   0.0468750
        k(   22) = (   0.0625000   0.4375000   0.4375000), wk =   0.0234375
        k(   23) = (   0.0625000   0.4375000  -0.4375000), wk =   0.0468750
        k(   24) = (   0.0625000   0.4375000  -0.3125000), wk =   0.0468750
        k(   25) = (   0.0625000   0.4375000  -0.1875000), wk =   0.0468750
        k(   26) = (   0.0625000   0.4375000  -0.0625000), wk =   0.0468750
        k(   27) = (   0.0625000  -0.4375000  -0.4375000), wk =   0.0234375
        k(   28) = (   0.0625000  -0.4375000  -0.3125000), wk =   0.0468750
        k(   29) = (   0.0625000  -0.4375000  -0.1875000), wk =   0.0468750
        k(   30) = (   0.0625000  -0.3125000  -0.3125000), wk =   0.0234375
        k(   31) = (   0.0625000  -0.3125000  -0.1875000), wk =   0.0468750
        k(   32) = (   0.0625000  -0.1875000  -0.1875000), wk =   0.0234375
        k(   33) = (   0.1875000   0.1875000   0.1875000), wk =   0.0078125
        k(   34) = (   0.1875000   0.1875000   0.3125000), wk =   0.0234375
        k(   35) = (   0.1875000   0.1875000   0.4375000), wk =   0.0234375
        k(   36) = (   0.1875000   0.1875000  -0.4375000), wk =   0.0234375
        k(   37) = (   0.1875000   0.1875000  -0.3125000), wk =   0.0234375
        k(   38) = (   0.1875000   0.1875000  -0.1875000), wk =   0.0234375
        k(   39) = (   0.1875000   0.3125000   0.3125000), wk =   0.0234375
        k(   40) = (   0.1875000   0.3125000   0.4375000), wk =   0.0468750
        k(   41) = (   0.1875000   0.3125000  -0.4375000), wk =   0.0468750
        k(   42) = (   0.1875000   0.3125000  -0.3125000), wk =   0.0468750
        k(   43) = (   0.1875000   0.3125000  -0.1875000), wk =   0.0468750
        k(   44) = (   0.1875000   0.4375000   0.4375000), wk =   0.0234375
        k(   45) = (   0.1875000   0.4375000  -0.4375000), wk =   0.0468750
        k(   46) = (   0.1875000   0.4375000  -0.3125000), wk =   0.0468750
        k(   47) = (   0.1875000   0.4375000  -0.1875000), wk =   0.0468750
        k(   48) = (   0.1875000  -0.4375000  -0.4375000), wk =   0.0234375
        k(   49) = (   0.1875000  -0.4375000  -0.3125000), wk =   0.0468750
        k(   50) = (   0.1875000  -0.3125000  -0.3125000), wk =   0.0234375
        k(   51) = (   0.3125000   0.3125000   0.3125000), wk =   0.0078125
        k(   52) = (   0.3125000   0.3125000   0.4375000), wk =   0.0234375
        k(   53) = (   0.3125000   0.3125000  -0.4375000), wk =   0.0234375
        k(   54) = (   0.3125000   0.3125000  -0.3125000), wk =   0.0234375
        k(   55) = (   0.3125000   0.4375000   0.4375000), wk =   0.0234375
        k(   56) = (   0.3125000   0.4375000  -0.4375000), wk =   0.0468750
        k(   57) = (   0.3125000   0.4375000  -0.3125000), wk =   0.0468750
        k(   58) = (   0.3125000  -0.4375000  -0.4375000), wk =   0.0234375
        k(   59) = (   0.4375000   0.4375000   0.4375000), wk =   0.0078125
        k(   60) = (   0.4375000   0.4375000  -0.4375000), wk =   0.0234375

     Dense  grid:    23505 G-vectors     FFT dimensions: (  40,  40,  40)

     Dynamical RAM for                 wfc:       0.12 MB

     Dynamical RAM for     wfc (w. buffer):       1.04 MB

     Dynamical RAM for           str. fact:       0.10 MB

     Dynamical RAM for           local pot:       0.00 MB

     Dynamical RAM for          nlocal pot:       0.08 MB

     Dynamical RAM for                qrad:       0.38 MB

     Dynamical RAM for          rho,v,vnew:       0.37 MB

     Dynamical RAM for               rhoin:       0.12 MB

     Dynamical RAM for            rho*nmix:       0.82 MB

     Dynamical RAM for           G-vectors:       0.22 MB

     Dynamical RAM for          h,s,v(r/c):       0.01 MB

     Dynamical RAM for          <psi|beta>:       0.00 MB

     Dynamical RAM for                 psi:       0.23 MB

     Dynamical RAM for                hpsi:       0.23 MB

     Dynamical RAM for      wfcinit/wfcrot:       0.24 MB

     Estimated static dynamical RAM per process >       3.65 MB

     Estimated max dynamical RAM per process >       4.13 MB

     Estimated total dynamical RAM >     231.45 MB

     Initial potential from superposition of free atoms

     starting charge    7.99971, renormalised to    8.00000
     Starting wfcs are   13 randomized atomic wfcs +    5 random wfcs

     total cpu time spent up to now is        0.7 secs

     Self-consistent Calculation

     iteration #  1     ecut=    70.00 Ry     beta= 0.70
     Davidson diagonalization with overlap
     ethr =  1.00E-02,  avg # of iterations =  7.1

     total cpu time spent up to now is        1.4 secs

     total energy              =     -24.62457531 Ry
     estimated scf accuracy    <       0.10138390 Ry

     iteration #  2     ecut=    70.00 Ry     beta= 0.70
     Davidson diagonalization with overlap
     ethr =  1.27E-03,  avg # of iterations =  3.7

     total cpu time spent up to now is        1.8 secs

     total energy              =     -24.64979673 Ry
     estimated scf accuracy    <       0.01963426 Ry

     iteration #  3     ecut=    70.00 Ry     beta= 0.70
     Davidson diagonalization with overlap
     ethr =  2.45E-04,  avg # of iterations =  2.2

     total cpu time spent up to now is        2.1 secs

     total energy              =     -24.65331665 Ry
     estimated scf accuracy    <       0.00041573 Ry

     iteration #  4     ecut=    70.00 Ry     beta= 0.70
     Davidson diagonalization with overlap
     ethr =  5.20E-06,  avg # of iterations =  7.6

     total cpu time spent up to now is        2.6 secs

     total energy              =     -24.65335002 Ry
     estimated scf accuracy    <       0.00000258 Ry

     iteration #  5     ecut=    70.00 Ry     beta= 0.70
     Davidson diagonalization with overlap
     ethr =  3.23E-08,  avg # of iterations =  7.5

     total cpu time spent up to now is        3.1 secs

     total energy              =     -24.65335061 Ry
     estimated scf accuracy    <       0.00000002 Ry

     iteration #  6     ecut=    70.00 Ry     beta= 0.70
     Davidson diagonalization with overlap
     ethr =  2.36E-10,  avg # of iterations =  7.3

     total cpu time spent up to now is        3.6 secs

     End of self-consistent calculation

          k = 0.0442 0.0442 0.0442 (  2918 PWs)   bands (ev):

    -7.8122   4.2004   4.9334   4.9334   6.3855   8.8488   8.8766   8.8766
    12.9204  14.8819  14.8819  16.4211  17.2449  17.2449  19.9995  28.6694
    29.0627  29.0627

     occupation numbers 
     1.0000   1.0000   1.0000   1.0000   0.0000   0.0000   0.0000   0.0000
     0.0000   0.0000   0.0000   0.0000   0.0000   0.0000   0.0000   0.0000
     0.0000   0.0000

          k = 0.1326 0.1326-0.0442 (  2917 PWs)   bands (ev):

    -7.5873   2.5496   4.2320   4.8152   7.1069   9.0403   9.0964   9.9331
    13.7335  13.9949  14.4774  16.4198  17.9722  19.4106  21.7760  25.6903
    27.0939  27.7145

     occupation numbers 
     1.0000   1.0000   1.0000   1.0000   0.0000   0.0000   0.0000   0.0000
     0.0000   0.0000   0.0000   0.0000   0.0000   0.0000   0.0000   0.0000
     0.0000   0.0000

          k = 0.2210 0.2210-0.1326 (  2920 PWs)   bands (ev):

    -7.0646   0.4414   3.7070   4.3800   6.8715   9.5798   9.7738  11.2697
    13.6542  14.1135  15.0894  17.5460  20.7432  22.1907  22.3049  23.9664
    24.2487  24.9450

     occupation numbers 
     1.0000   1.0000   1.0000   1.0000   0.0000   0.0000   0.0000   0.0000
     0.0000   0.0000   0.0000   0.0000   0.0000   0.0000   0.0000   0.0000
     0.0000   0.0000

          k = 0.3094 0.3094-0.2210 (  2936 PWs)   bands (ev):

    -6.4169  -1.2027   3.4477   3.9762   6.5700   9.6789   9.7266  12.6928
    14.3241  15.0236  16.5437  18.2778  20.0437  20.8819  22.8698  24.2236
    25.5787  28.0203

     occupation numbers 
     1.0000   1.0000   1.0000   1.0000   0.0000   0.0000   0.0000   0.0000
     0.0000   0.0000   0.0000   0.0000   0.0000   0.0000   0.0000   0.0000
     0.0000   0.0000

          k =-0.3094-0.3094 0.3977 (  2936 PWs)   bands (ev):

    -6.1569  -1.7196   3.4722   3.7673   6.4947   9.4953   9.8248  12.8806
    14.9924  16.5287  17.0554  17.8239  18.4033  19.5425  24.5275  26.6051
    26.8639  27.5889

     occupation numbers 
     1.0000   1.0000   1.0000   1.0000   0.0000   0.0000   0.0000   0.0000
     0.0000   0.0000   0.0000   0.0000   0.0000   0.0000   0.0000   0.0000
     0.0000   0.0000

          k =-0.2210-0.2210 0.3094 (  2940 PWs)   bands (ev):

    -6.6236  -0.7432   3.7577   3.8127   6.6719   9.4545  10.0266  12.2175
    14.0066  14.8944  15.7102  18.6931  20.5151  21.6670  22.9458  23.1209
    24.2387  27.1134

     occupation numbers 
     1.0000   1.0000   1.0000   1.0000   0.0000   0.0000   0.0000   0.0000
     0.0000   0.0000   0.0000   0.0000   0.0000   0.0000   0.0000   0.0000
     0.0000   0.0000

          k =-0.1326-0.1326 0.2210 (  2924 PWs)   bands (ev):

    -7.2654   1.1225   4.1128   4.2291   7.0351   9.1354   9.9789  10.7269
    13.3754  14.5163  14.6838  16.8088  19.9497  20.9021  23.6083  23.9586
    24.2038  25.8922

     occupation numbers 
     1.0000   1.0000   1.0000   1.0000   0.0000   0.0000   0.0000   0.0000
     0.0000   0.0000   0.0000   0.0000   0.0000   0.0000   0.0000   0.0000
     0.0000   0.0000

          k =-0.0442-0.0442 0.1326 (  2912 PWs)   bands (ev):

    -7.6986   3.2898   4.5793   4.6650   7.0837   8.4982   9.3739   9.4304
    13.5112  13.7979  15.0670  16.5084  17.4787  18.2273  21.0996  27.2957
    27.4414  28.5723

     occupation numbers 
     1.0000   1.0000   1.0000   1.0000   0.0000   0.0000   0.0000   0.0000
     0.0000   0.0000   0.0000   0.0000   0.0000   0.0000   0.0000   0.0000
     0.0000   0.0000

          k = 0.2210 0.0442 0.0442 (  2922 PWs)   bands (ev):

    -7.4748   2.2769   4.0653   4.0907   7.6618   8.2325  10.1695  10.2245
    12.7318  14.6302  15.4267  17.0309  17.9585  18.9651  23.0390  25.5965
    25.6076  27.5094

     occupation numbers 
     1.0000   1.0000   1.0000   1.0000   0.0000   0.0000   0.0000   0.0000
     0.0000   0.0000   0.0000   0.0000   0.0000   0.0000   0.0000   0.0000
     0.0000   0.0000

          k = 0.3094 0.1326-0.0442 (  2925 PWs)   bands (ev):

    -7.0500   0.8423   3.1263   3.8334   7.7673   8.5892  10.5534  10.9212
    13.1791  15.5180  15.9321  17.6697  19.2975  21.2828  22.2352  23.9415
    25.5718  26.3034

     occupation numbers 
     1.0000   1.0000   1.0000   1.0000   0.0000   0.0000   0.0000   0.0000
     0.0000   0.0000   0.0000   0.0000   0.0000   0.0000   0.0000   0.0000
     0.0000   0.0000

          k = 0.3977 0.2210-0.1326 (  2943 PWs)   bands (ev):

    -6.4261  -0.7430   2.5456   3.4505   7.6399   9.2597  10.7273  11.3015
    14.6248  15.7152  17.1664  18.1699  20.0663  21.4709  22.6265  24.3739
    24.6771  27.7913

     occupation numbers 
     1.0000   1.0000   1.0000   1.0000   0.0000   0.0000   0.0000   0.0000
     0.0000   0.0000   0.0000   0.0000   0.0000   0.0000   0.0000   0.0000
     0.0000   0.0000

          k =-0.2210-0.3977 0.4861 (  2939 PWs)   bands (ev):

    -5.9799  -1.6201   2.2266   3.3611   7.5618   9.2664  10.7788  12.7339
    14.4913  16.1844  16.9649  17.9254  19.8484  21.5920  24.0405  25.5192
    26.2843  27.5066

     occupation numbers 
     1.0000   1.0000   1.0000   1.0000   0.0000   0.0000   0.0000   0.0000
     0.0000   0.0000   0.0000   0.0000   0.0000   0.0000   0.0000   0.0000
     0.0000   0.0000

          k =-0.1326-0.3094 0.3977 (  2948 PWs)   bands (ev):

    -6.2322  -1.1425   2.1935   3.6284   7.6886   9.3481  10.6295  12.0733
    14.4426  15.3344  16.9706  18.3410  20.4734  21.7223  22.8811  24.0998
    26.5052  27.8387

     occupation numbers 
     1.0000   1.0000   1.0000   1.0000   0.0000   0.0000   0.0000   0.0000
     0.0000   0.0000   0.0000   0.0000   0.0000   0.0000   0.0000   0.0000
     0.0000   0.0000

          k =-0.0442-0.2210 0.3094 (  2933 PWs)   bands (ev):

    -6.8592   0.2712   2.5919   4.1067   7.9204   9.1334  10.4368  10.7510
    13.2976  15.4277  16.3297  17.9744  19.9764  20.8301  23.1586  24.1031
    25.5194  26.3025

     occupation numbers 
     1.0000   1.0000   1.0000   1.0000   0.0000   0.0000   0.0000   0.0000
     0.0000   0.0000   0.0000   0.0000   0.0000   0.0000   0.0000   0.0000
     0.0000   0.0000

          k = 0.0442-0.1326 0.2210 (  2916 PWs)   bands (ev):

    -7.3683   1.6942   3.6865   4.4492   7.5662   8.6522   9.9237  10.4749
    13.0743  14.6501  15.0252  16.9099  18.5001  20.4361  23.3440  23.9405
    25.6509  27.1784

     occupation numbers 
     1.0000   1.0000   1.0000   1.0000   0.0000   0.0000   0.0000   0.0000
     0.0000   0.0000   0.0000   0.0000   0.0000   0.0000   0.0000   0.0000
     0.0000   0.0000

          k = 0.3977 0.0442 0.0442 (  2919 PWs)   bands (ev):

    -6.7341   0.2873   2.9669   3.0763   6.9193   8.2103  11.7389  12.1110
    13.3999  16.5830  17.1313  18.9423  19.7248  20.7502  22.1538  22.3117
    24.9862  25.1647

     occupation numbers 
     1.0000   1.0000   1.0000   1.0000   0.0000   0.0000   0.0000   0.0000
     0.0000   0.0000   0.0000   0.0000   0.0000   0.0000   0.0000   0.0000
     0.0000   0.0000

          k = 0.4861 0.1326-0.0442 (  2941 PWs)   bands (ev):

    -6.1969  -0.7481   2.2123   2.7395   7.1669   8.1906  11.5872  13.0241
    14.9030  17.5181  17.7856  19.1921  20.1501  20.8987  21.8789  23.4075
    24.0589  25.3319

     occupation numbers 
     1.0000   1.0000   1.0000   1.0000   0.0000   0.0000   0.0000   0.0000
     0.0000   0.0000   0.0000   0.0000   0.0000   0.0000   0.0000   0.0000
     0.0000   0.0000

          k =-0.1326-0.4861 0.5745 (  2941 PWs)   bands (ev):

    -5.7078  -1.5144   1.3914   2.7024   7.3433   9.7430  11.2507  12.8375
    14.6813  17.0412  18.1787  18.6126  20.4037  22.6704  23.8453  24.6218
    25.0387  25.6454

     occupation numbers 
     1.0000   1.0000   1.0000   1.0000   0.0000   0.0000   0.0000   0.0000
     0.0000   0.0000   0.0000   0.0000   0.0000   0.0000   0.0000   0.0000
     0.0000   0.0000

          k =-0.0442-0.3977 0.4861 (  2950 PWs)   bands (ev):

    -5.7486  -1.4403   1.0626   3.0360   7.6725  10.5688  11.3667  12.8145
    13.1221  14.9583  18.5936  19.6372  21.1927  22.3333  23.0473  24.9757
    25.8436  26.9508

     occupation numbers 
     1.0000   1.0000   1.0000   1.0000   0.0000   0.0000   0.0000   0.0000
     0.0000   0.0000   0.0000   0.0000   0.0000   0.0000   0.0000   0.0000
     0.0000   0.0000

          k = 0.0442-0.3094 0.3977 (  2943 PWs)   bands (ev):

    -6.2616  -0.8040   1.6442   3.5951   8.0325   9.7590  10.6318  11.6328
    13.7750  15.5514  17.6364  18.6166  19.7714  22.3814  23.2552  24.1847
    25.9530  26.8374

     occupation numbers 
     1.0000   1.0000   1.0000   1.0000   0.0000   0.0000   0.0000   0.0000
     0.0000   0.0000   0.0000   0.0000   0.0000   0.0000   0.0000   0.0000
     0.0000   0.0000

          k = 0.1326-0.2210 0.3094 (  2932 PWs)   bands (ev):

    -6.7776  -0.1947   3.1566   4.0029   7.2775   9.3122  10.2729  11.3657
    13.8711  14.7142  16.0305  18.2515  20.8579  21.4136  22.6386  23.5169
    24.3501  26.5616

     occupation numbers 
     1.0000   1.0000   1.0000   1.0000   0.0000   0.0000   0.0000   0.0000
     0.0000   0.0000   0.0000   0.0000   0.0000   0.0000   0.0000   0.0000
     0.0000   0.0000

          k = 0.5745 0.0442 0.0442 (  2941 PWs)   bands (ev):

    -5.7988  -1.3771   2.2719   2.4566   6.4814   7.1618  13.8085  14.1259
    15.3507  18.0521  18.5284  19.3602  20.0675  21.7130  22.2272  22.7118
    23.4013  24.2484

     occupation numbers 
     1.0000   1.0000   1.0000   1.0000   0.0000   0.0000   0.0000   0.0000
     0.0000   0.0000   0.0000   0.0000   0.0000   0.0000   0.0000   0.0000
     0.0000   0.0000

          k =-0.0442-0.5745 0.6629 (  2939 PWs)   bands (ev):

    -5.4638  -1.8050   1.7650   2.2433   6.8693   7.5880  13.5655  14.3218
    15.5739  17.5096  18.2509  19.4041  20.8259  22.2274  22.6138  23.9896
    24.4071  25.6794

     occupation numbers 
     1.0000   1.0000   1.0000   1.0000   0.0000   0.0000   0.0000   0.0000
     0.0000   0.0000   0.0000   0.0000   0.0000   0.0000   0.0000   0.0000
     0.0000   0.0000

          k = 0.0442-0.4861 0.5745 (  2940 PWs)   bands (ev):

    -5.4964  -1.6954   1.0888   2.5574   7.2112   9.6838  12.1672  13.0529
    14.2791  16.1854  18.9308  20.0680  21.3648  22.1572  23.2916  23.9527
    25.0266  26.3737

     occupation numbers 
     1.0000   1.0000   1.0000   1.0000   0.0000   0.0000   0.0000   0.0000
     0.0000   0.0000   0.0000   0.0000   0.0000   0.0000   0.0000   0.0000
     0.0000   0.0000

          k = 0.1326-0.3977 0.4861 (  2945 PWs)   bands (ev):

    -5.8267  -1.5620   1.5271   3.1444   7.7056   9.7582  11.3868  12.6282
    13.7102  15.8383  17.2421  18.9606  21.1712  22.2475  22.9799  25.4508
    26.2688  27.0281

     occupation numbers 
     1.0000   1.0000   1.0000   1.0000   0.0000   0.0000   0.0000   0.0000
     0.0000   0.0000   0.0000   0.0000   0.0000   0.0000   0.0000   0.0000
     0.0000   0.0000

          k = 0.2210-0.3094 0.3977 (  2934 PWs)   bands (ev):

    -6.1889  -1.5055   2.9282   3.6835   7.0495   9.3421  10.1616  12.8092
    14.5561  15.8457  16.9585  17.9357  19.2504  20.9843  23.4910  25.1342
    27.0021  27.5276

     occupation numbers 
     1.0000   1.0000   1.0000   1.0000   0.0000   0.0000   0.0000   0.0000
     0.0000   0.0000   0.0000   0.0000   0.0000   0.0000   0.0000   0.0000
     0.0000   0.0000

          k =-0.6629 0.0442 0.0442 (  2940 PWs)   bands (ev):

    -5.4777  -1.8484   2.1290   2.3283   6.4561   6.8482  14.7066  14.8843
    15.7436  18.0804  18.2862  19.1219  19.6221  21.3194  23.3296  24.4411
    24.7558  25.3169

     occupation numbers 
     1.0000   1.0000   1.0000   1.0000   0.0000   0.0000   0.0000   0.0000
     0.0000   0.0000   0.0000   0.0000   0.0000   0.0000   0.0000   0.0000
     0.0000   0.0000

          k =-0.5745 0.1326-0.0442 (  2936 PWs)   bands (ev):

    -5.7597  -1.3997   1.9187   2.4081   6.9655   7.8058  12.5641  13.9990
    15.4726  17.6687  18.2919  19.3296  20.3132  21.2723  22.6854  23.3743
    24.6001  25.1893

     occupation numbers 
     1.0000   1.0000   1.0000   1.0000   0.0000   0.0000   0.0000   0.0000
     0.0000   0.0000   0.0000   0.0000   0.0000   0.0000   0.0000   0.0000
     0.0000   0.0000

          k =-0.4861 0.2210-0.1326 (  2949 PWs)   bands (ev):

    -6.0482  -1.1876   1.9191   2.9981   7.5556   9.6308  10.7138  12.0031
    15.1370  16.9547  17.5490  18.1169  19.5566  21.9624  23.6818  24.2413
    25.7292  26.7490

     occupation numbers 
     1.0000   1.0000   1.0000   1.0000   0.0000   0.0000   0.0000   0.0000
     0.0000   0.0000   0.0000   0.0000   0.0000   0.0000   0.0000   0.0000
     0.0000   0.0000

          k =-0.4861 0.0442 0.0442 (  2930 PWs)   bands (ev):

    -6.2626  -0.6176   2.5541   2.7091   6.6319   7.6572  12.7504  13.1360
    14.4324  17.3194  18.2112  20.2060  20.5767  20.9613  21.0805  22.0371
    23.6539  24.1295

     occupation numbers 
     1.0000   1.0000   1.0000   1.0000   0.0000   0.0000   0.0000   0.0000
     0.0000   0.0000   0.0000   0.0000   0.0000   0.0000   0.0000   0.0000
     0.0000   0.0000

          k =-0.3977 0.1326-0.0442 (  2932 PWs)   bands (ev):

    -6.6488   0.0199   2.6233   3.2285   7.4649   8.5802  10.8053  11.9634
    13.9792  16.5425  16.9293  18.5626  20.2814  20.8786  22.1228  22.5476
    25.0154  26.6568

     occupation numbers 
     1.0000   1.0000   1.0000   1.0000   0.0000   0.0000   0.0000   0.0000
     0.0000   0.0000   0.0000   0.0000   0.0000   0.0000   0.0000   0.0000
     0.0000   0.0000

          k =-0.3094 0.0442 0.0442 (  2915 PWs)   bands (ev):

    -7.1483   1.2649   3.4921   3.5400   7.3193   8.4969  10.9344  11.1079
    12.6222  15.8576  15.9409  17.8548  18.7032  19.7582  23.8242  23.8747
    25.3516  26.2943

     occupation numbers 
     1.0000   1.0000   1.0000   1.0000   0.0000   0.0000   0.0000   0.0000
     0.0000   0.0000   0.0000   0.0000   0.0000   0.0000   0.0000   0.0000
     0.0000   0.0000

          k = 0.1326 0.1326 0.1326 (  2923 PWs)   bands (ev):

    -7.4787   1.8908   4.5398   4.5398   6.7676   9.4288   9.4288  10.0711
    14.0565  14.0565  14.1190  16.0663  19.5892  19.5892  22.3431  25.6462
    25.8349  25.8349

     occupation numbers 
     1.0000   1.0000   1.0000   1.0000   0.0000   0.0000   0.0000   0.0000
     0.0000   0.0000   0.0000   0.0000   0.0000   0.0000   0.0000   0.0000
     0.0000   0.0000

          k = 0.2210 0.2210 0.0442 (  2921 PWs)   bands (ev):

    -7.1598   0.9769   3.1375   4.5259   7.5628   9.5019   9.5409  10.7365
    13.1514  14.6421  15.5344  17.3639  19.1715  22.0569  22.1696  24.2173
    25.5484  26.1367

     occupation numbers 
     1.0000   1.0000   1.0000   1.0000   0.0000   0.0000   0.0000   0.0000
     0.0000   0.0000   0.0000   0.0000   0.0000   0.0000   0.0000   0.0000
     0.0000   0.0000

          k = 0.3094 0.3094-0.0442 (  2931 PWs)   bands (ev):

    -6.5887  -0.2974   2.0717   4.0530   7.8238  10.0398  10.2285  10.9611
    13.2598  15.6756  17.0679  18.3023  19.4354  21.5084  23.8663  24.4685
    25.1624  27.0461

     occupation numbers 
     1.0000   1.0000   1.0000   1.0000   0.0000   0.0000   0.0000   0.0000
     0.0000   0.0000   0.0000   0.0000   0.0000   0.0000   0.0000   0.0000
     0.0000   0.0000

          k =-0.3094-0.3094 0.5745 (  2944 PWs)   bands (ev):

    -6.0200  -1.4259   1.8308   3.5413   7.5387   9.7871  10.7106  12.6978
    14.5568  14.7652  16.6892  19.1719  21.2098  21.4887  22.4541  25.3316
    27.0104  27.7032

     occupation numbers 
     1.0000   1.0000   1.0000   1.0000   0.0000   0.0000   0.0000   0.0000
     0.0000   0.0000   0.0000   0.0000   0.0000   0.0000   0.0000   0.0000
     0.0000   0.0000

          k =-0.2210-0.2210 0.4861 (  2947 PWs)   bands (ev):

    -6.0088  -1.4527   2.1024   3.2381   7.3888   9.6736  11.0917  11.7131
    15.0101  16.8496  17.0956  18.0761  18.9611  22.6840  23.8043  24.5545
    26.1958  26.7519

     occupation numbers 
     1.0000   1.0000   1.0000   1.0000   0.0000   0.0000   0.0000   0.0000
     0.0000   0.0000   0.0000   0.0000   0.0000   0.0000   0.0000   0.0000
     0.0000   0.0000

          k =-0.1326-0.1326 0.3977 (  2938 PWs)   bands (ev):

    -6.5715  -0.3045   2.7314   3.2355   7.4401   9.1009  10.6941  11.3988
    14.5465  16.2213  16.6367  18.6268  20.4539  21.3988  21.5457  23.0622
    25.4243  27.1799

     occupation numbers 
     1.0000   1.0000   1.0000   1.0000   0.0000   0.0000   0.0000   0.0000
     0.0000   0.0000   0.0000   0.0000   0.0000   0.0000   0.0000   0.0000
     0.0000   0.0000

          k = 0.3094 0.1326 0.1326 (  2930 PWs)   bands (ev):

    -6.9570   0.3818   3.5002   3.6538   7.4916   8.9530  10.6496  10.7714
    13.6208  15.2305  15.5706  17.8120  20.4881  21.9338  22.2093  22.5709
    25.4926  26.2413

     occupation numbers 
     1.0000   1.0000   1.0000   1.0000   0.0000   0.0000   0.0000   0.0000
     0.0000   0.0000   0.0000   0.0000   0.0000   0.0000   0.0000   0.0000
     0.0000   0.0000

          k = 0.3977 0.2210 0.0442 (  2940 PWs)   bands (ev):

    -6.4859  -0.3842   2.1230   3.4526   8.2020   9.0159  10.1904  11.7883
    13.9952  16.2594  17.2976  18.4315  19.6261  21.4679  22.6033  24.3010
    24.8297  27.2398

     occupation numbers 
     1.0000   1.0000   1.0000   1.0000   0.0000   0.0000   0.0000   0.0000
     0.0000   0.0000   0.0000   0.0000   0.0000   0.0000   0.0000   0.0000
     0.0000   0.0000

          k =-0.2210-0.3977 0.6629 (  2945 PWs)   bands (ev):

    -5.9165  -1.2202   1.3510   2.9298   8.5119   9.4978  10.4264  12.8620
    13.9818  15.5388  18.3090  19.1863  20.5793  21.6673  23.3819  24.6868
    26.1744  27.3120

     occupation numbers 
     1.0000   1.0000   1.0000   1.0000   0.0000   0.0000   0.0000   0.0000
     0.0000   0.0000   0.0000   0.0000   0.0000   0.0000   0.0000   0.0000
     0.0000   0.0000

          k =-0.1326-0.3094 0.5745 (  2952 PWs)   bands (ev):

    -5.6854  -1.5685   1.3182   2.6366   8.2272   9.6056  11.1775  12.8139
    13.5681  17.0904  18.0188  18.2141  21.5039  22.6174  23.4004  24.4761
    25.5744  26.7325

     occupation numbers 
     1.0000   1.0000   1.0000   1.0000   0.0000   0.0000   0.0000   0.0000
     0.0000   0.0000   0.0000   0.0000   0.0000   0.0000   0.0000   0.0000
     0.0000   0.0000

          k =-0.0442-0.2210 0.4861 (  2945 PWs)   bands (ev):

    -6.0751  -0.9700   1.7649   2.8036   8.0607   9.0298  10.3444  12.9492
    14.6963  16.5885  18.2459  18.6839  20.1342  21.1478  22.8813  24.1161
    25.3747  26.7407

     occupation numbers 
     1.0000   1.0000   1.0000   1.0000   0.0000   0.0000   0.0000   0.0000
     0.0000   0.0000   0.0000   0.0000   0.0000   0.0000   0.0000   0.0000
     0.0000   0.0000

          k = 0.4861 0.1326 0.1326 (  2945 PWs)   bands (ev):

    -6.1434  -0.9252   2.0693   2.8980   7.1406   8.9581  11.3288  12.2090
    15.4232  17.3493  17.6656  18.7594  19.2100  21.7029  22.3404  24.1973
    24.9339  25.6023

     occupation numbers 
     1.0000   1.0000   1.0000   1.0000   0.0000   0.0000   0.0000   0.0000
     0.0000   0.0000   0.0000   0.0000   0.0000   0.0000   0.0000   0.0000
     0.0000   0.0000

          k =-0.1326-0.4861 0.7513 (  2942 PWs)   bands (ev):

    -5.6918  -1.4496   1.5336   2.2950   7.8687   8.8119  11.1129  13.7504
    14.7833  17.0475  18.5384  19.2791  20.7208  21.3861  22.7905  24.8323
    25.6079  25.7972

     occupation numbers 
     1.0000   1.0000   1.0000   1.0000   0.0000   0.0000   0.0000   0.0000
     0.0000   0.0000   0.0000   0.0000   0.0000   0.0000   0.0000   0.0000
     0.0000   0.0000

          k =-0.0442-0.3977 0.6629 (  2948 PWs)   bands (ev):

    -5.4295  -1.6898   1.2334   1.8408   8.9063   9.7556  10.7385  11.7782
    15.4713  17.4026  18.1631  19.5532  21.4788  22.7473  23.3553  24.0606
    24.7827  25.7645

     occupation numbers 
     1.0000   1.0000   1.0000   1.0000   0.0000   0.0000   0.0000   0.0000
     0.0000   0.0000   0.0000   0.0000   0.0000   0.0000   0.0000   0.0000
     0.0000   0.0000

          k = 0.0442-0.3094 0.5745 (  2947 PWs)   bands (ev):

    -5.6131  -1.5245   1.2177   2.2864   8.8905   9.5503  10.3077  12.8413
    14.3411  16.6260  18.7287  19.2941  21.0741  21.9231  23.0868  25.1329
    25.9354  26.4796

     occupation numbers 
     1.0000   1.0000   1.0000   1.0000   0.0000   0.0000   0.0000   0.0000
     0.0000   0.0000   0.0000   0.0000   0.0000   0.0000   0.0000   0.0000
     0.0000   0.0000

          k =-0.7513 0.1326 0.1326 (  2933 PWs)   bands (ev):

    -5.4723  -1.7648   1.3450   2.5434   6.7336   8.5523  13.3661  13.7172
    14.8018  16.5767  18.7216  20.4614  20.6908  22.2834  22.7692  23.5331
    25.3511  25.3966

     occupation numbers 
     1.0000   1.0000   1.0000   1.0000   0.0000   0.0000   0.0000   0.0000
     0.0000   0.0000   0.0000   0.0000   0.0000   0.0000   0.0000   0.0000
     0.0000   0.0000

          k =-0.6629 0.2210 0.0442 (  2938 PWs)   bands (ev):

    -5.4438  -1.7395   1.4276   2.0123   7.7601   8.6614  12.0844  13.1198
    15.4787  17.3862  18.2105  19.5134  21.6351  22.3759  23.3088  23.7946
    24.2473  25.2976

     occupation numbers 
     1.0000   1.0000   1.0000   1.0000   0.0000   0.0000   0.0000   0.0000
     0.0000   0.0000   0.0000   0.0000   0.0000   0.0000   0.0000   0.0000
     0.0000   0.0000

          k =-0.5745 0.1326 0.1326 (  2937 PWs)   bands (ev):

    -5.7385  -1.4443   1.5923   2.6633   6.8777   8.7022  12.3352  13.0406
    15.5278  17.3931  18.1388  19.4224  19.4522  22.3105  23.3931  24.2613
    24.3636  25.5956

     occupation numbers 
     1.0000   1.0000   1.0000   1.0000   0.0000   0.0000   0.0000   0.0000
     0.0000   0.0000   0.0000   0.0000   0.0000   0.0000   0.0000   0.0000
     0.0000   0.0000

          k = 0.2210 0.2210 0.2210 (  2929 PWs)   bands (ev):

    -6.8809  -0.1866   4.1237   4.1237   6.3811   9.7257   9.7257  12.0130
    13.8322  14.5491  14.5491  18.2745  22.0657  22.0657  22.8251  22.8251
    22.9135  25.6304

     occupation numbers 
     1.0000   1.0000   1.0000   1.0000   0.0000   0.0000   0.0000   0.0000
     0.0000   0.0000   0.0000   0.0000   0.0000   0.0000   0.0000   0.0000
     0.0000   0.0000

          k = 0.3094 0.3094 0.1326 (  2933 PWs)   bands (ev):

    -6.5272  -0.7232   2.6780   4.0300   7.3155   9.7003   9.9689  11.9634
    13.9408  14.7951  17.0126  18.0151  20.3716  22.0838  22.6936  23.3565
    25.2811  27.5749

     occupation numbers 
     1.0000   1.0000   1.0000   1.0000   0.0000   0.0000   0.0000   0.0000
     0.0000   0.0000   0.0000   0.0000   0.0000   0.0000   0.0000   0.0000
     0.0000   0.0000

          k =-0.3094-0.3094 0.7513 (  2943 PWs)   bands (ev):

    -6.0030  -1.1679   1.2732   3.4844   7.6178  10.5899  11.1773  11.8107
    13.9654  14.3864  17.9650  19.2379  20.5702  22.7212  23.2455  24.4910
    25.4569  27.6328

     occupation numbers 
     1.0000   1.0000   1.0000   1.0000   0.0000   0.0000   0.0000   0.0000
     0.0000   0.0000   0.0000   0.0000   0.0000   0.0000   0.0000   0.0000
     0.0000   0.0000

          k =-0.2210-0.2210 0.6629 (  2936 PWs)   bands (ev):

    -5.6011  -1.5994   0.9627   2.9481   7.1475  10.6432  12.3577  12.3703
    13.4194  15.1194  19.0385  19.9132  21.7496  21.9082  23.3305  24.1863
    25.8970  27.0860

     occupation numbers 
     1.0000   1.0000   1.0000   1.0000   0.0000   0.0000   0.0000   0.0000
     0.0000   0.0000   0.0000   0.0000   0.0000   0.0000   0.0000   0.0000
     0.0000   0.0000

          k = 0.3977 0.2210 0.2210 (  2938 PWs)   bands (ev):

    -6.3190  -1.1738   2.9495   3.5030   7.2270   9.2974  10.4889  11.9647
    14.5357  15.9590  16.9752  18.2494  19.0242  21.9149  23.3679  23.7556
    25.5503  28.1499

     occupation numbers 
     1.0000   1.0000   1.0000   1.0000   0.0000   0.0000   0.0000   0.0000
     0.0000   0.0000   0.0000   0.0000   0.0000   0.0000   0.0000   0.0000
     0.0000   0.0000

          k =-0.2210-0.3977 0.8397 (  2942 PWs)   bands (ev):

    -5.9334  -1.4248   1.7310   3.0799   8.1357   9.1748  11.1675  12.2810
    14.2419  16.3246  17.0867  18.5732  20.5551  22.1587  23.2525  25.0582
    26.2793  26.7758

     occupation numbers 
     1.0000   1.0000   1.0000   1.0000   0.0000   0.0000   0.0000   0.0000
     0.0000   0.0000   0.0000   0.0000   0.0000   0.0000   0.0000   0.0000
     0.0000   0.0000

          k =-0.1326-0.3094 0.7513 (  2951 PWs)   bands (ev):

    -5.5437  -1.6111   1.0503   2.4076   8.1609  10.3106  11.0752  12.1614
    14.2221  16.3030  18.8687  19.5742  21.4336  22.0782  23.4476  24.8241
    25.2790  26.4511

     occupation numbers 
     1.0000   1.0000   1.0000   1.0000   0.0000   0.0000   0.0000   0.0000
     0.0000   0.0000   0.0000   0.0000   0.0000   0.0000   0.0000   0.0000
     0.0000   0.0000

          k =-0.8397 0.2210 0.2210 (  2940 PWs)   bands (ev):

    -5.7497  -1.5786   1.3895   3.0474   7.2607  10.3267  11.7356  11.7799
    14.4778  15.9732  17.7582  19.0326  20.4211  23.1678  23.5039  25.1570
    25.1785  26.4788

     occupation numbers 
     1.0000   1.0000   1.0000   1.0000   0.0000   0.0000   0.0000   0.0000
     0.0000   0.0000   0.0000   0.0000   0.0000   0.0000   0.0000   0.0000
     0.0000   0.0000

          k = 0.3094 0.3094 0.3094 (  2929 PWs)   bands (ev):

    -6.2825  -1.5589   3.8859   3.8859   6.1236   9.6630   9.6630  12.7086
    14.8239  16.3057  16.3057  18.3729  19.2201  19.2201  23.7547  26.0254
    26.0254  27.9100

     occupation numbers 
     1.0000   1.0000   1.0000   1.0000   0.0000   0.0000   0.0000   0.0000
     0.0000   0.0000   0.0000   0.0000   0.0000   0.0000   0.0000   0.0000
     0.0000   0.0000

          k =-0.3094-0.3094 0.9281 (  2938 PWs)   bands (ev):

    -6.0671  -1.6617   2.6468   3.6431   7.1564   9.4092  10.1966  13.1008
    14.8412  15.9343  16.1876  18.4484  19.7602  20.3116  24.0258  26.1546
    27.0356  27.2247

     occupation numbers 
     1.0000   1.0000   1.0000   1.0000   0.0000   0.0000   0.0000   0.0000
     0.0000   0.0000   0.0000   0.0000   0.0000   0.0000   0.0000   0.0000
     0.0000   0.0000

     highest occupied, lowest unoccupied level (ev):     4.9334    6.1236

!    total energy              =     -24.65335061 Ry
     estimated scf accuracy    <          2.8E-10 Ry

     The total energy is the sum of the following terms:
     one-electron contribution =       3.39336718 Ry
     hartree contribution      =       1.52512738 Ry
     xc contribution           =     -12.58231202 Ry
     ewald contribution        =     -16.98953314 Ry

     convergence has been achieved in   6 iterations

     Writing output data file run_output/GaAs.save/

     init_run     :      0.27s CPU      0.43s WALL (       1 calls)
     electrons    :      2.92s CPU      2.98s WALL (       1 calls)

     Called by init_run:
     wfcinit      :      0.15s CPU      0.27s WALL (       1 calls)
     wfcinit:atom :      0.00s CPU      0.00s WALL (       8 calls)
     wfcinit:wfcr :      0.15s CPU      0.27s WALL (       8 calls)
     potinit      :      0.02s CPU      0.03s WALL (       1 calls)
     hinit0       :      0.03s CPU      0.04s WALL (       1 calls)

     Called by electrons:
     c_bands      :      2.52s CPU      2.54s WALL (       6 calls)
     sum_band     :      0.32s CPU      0.32s WALL (       6 calls)
     v_of_rho     :      0.03s CPU      0.04s WALL (       7 calls)
     v_h          :      0.01s CPU      0.01s WALL (       7 calls)
     v_xc         :      0.03s CPU      0.03s WALL (       7 calls)
     mix_rho      :      0.01s CPU      0.02s WALL (       6 calls)

     Called by c_bands:
     init_us_2    :      0.02s CPU      0.02s WALL (     104 calls)
     cegterg      :      2.04s CPU      2.06s WALL (      48 calls)

     Called by sum_band:
     sum_band:wei :      0.00s CPU      0.00s WALL (       6 calls)
     sum_band:loo :      0.30s CPU      0.30s WALL (       6 calls)
     sum_band:buf :      0.00s CPU      0.00s WALL (      48 calls)
     sum_band:ini :      0.01s CPU      0.01s WALL (      48 calls)

     Called by *egterg:
     cdiaghg      :      0.29s CPU      0.39s WALL (     298 calls)
     cegterg:over :      0.06s CPU      0.06s WALL (     250 calls)
     cegterg:upda :      0.03s CPU      0.03s WALL (     250 calls)
     cegterg:last :      0.03s CPU      0.03s WALL (     131 calls)
     cdiaghg:chol :      0.03s CPU      0.06s WALL (     298 calls)
     cdiaghg:inve :      0.01s CPU      0.02s WALL (     298 calls)
     cdiaghg:para :      0.04s CPU      0.04s WALL (     596 calls)
     h_psi        :      1.74s CPU      1.77s WALL (     306 calls)
     g_psi        :      0.02s CPU      0.02s WALL (     250 calls)

     Called by h_psi:
     h_psi:calbec :      0.02s CPU      0.03s WALL (     306 calls)
     vloc_psi     :      1.71s CPU      1.72s WALL (     306 calls)
     add_vuspsi   :      0.01s CPU      0.01s WALL (     306 calls)

     General routines
     calbec       :      0.02s CPU      0.03s WALL (     306 calls)
     fft          :      0.02s CPU      0.03s WALL (      21 calls)
     ffts         :      0.00s CPU      0.01s WALL (       6 calls)
     fftw         :      1.63s CPU      1.64s WALL (    6610 calls)

     Parallel routines
     fft_scatt_xy :      0.28s CPU      0.28s WALL (    6637 calls)
     fft_scatt_yz :      0.37s CPU      0.39s WALL (    6637 calls)

     PWSCF        :      3.32s CPU      4.19s WALL


   This run was terminated on:  16:52:21   9Nov2021            

=------------------------------------------------------------------------------=
   JOB DONE.
=------------------------------------------------------------------------------=
