
     Program PWSCF v.6.7MaX starts on 28Apr2021 at 17:18:55 

     This program is part of the open-source Quantum ESPRESSO suite
     for quantum simulation of materials; please cite
         "P. Giannozzi et al., J. Phys.:Condens. Matter 21 395502 (2009);
         "P. Giannozzi et al., J. Phys.:Condens. Matter 29 465901 (2017);
          URL http://www.quantum-espresso.org", 
     in publications or presentations arising from this work. More details at
     http://www.quantum-espresso.org/quote

     Parallel version (MPI), running on    28 processors

     MPI processes distributed on     1 nodes
     R & G space division:  proc/nbgrp/npool/nimage =      28
     Waiting for input...
     Reading input from standard input

     Current dimensions of program PWSCF are:
     Max number of different atomic species (ntypx) = 10
     Max number of k-points (npk) =  40000
     Max angular momentum in pseudopotentials (lmaxx) =  3

     Atomic positions and unit cell read from directory:
     run_output/hBN.save/
     Atomic positions from file used, from input discarded


     Subspace diagonalization in iterative solution of the eigenvalue problem:
     a serial algorithm will be used


     Parallelization info
     --------------------
     sticks:   dense  smooth     PW     G-vecs:    dense   smooth      PW
     Min           9       9      3                  283      283      53
     Max          10      10      4                  289      289      60
     Sum         253     253     85                 8029     8029    1553



     bravais-lattice index     =            4
     lattice parameter (alat)  =       4.7160  a.u.
     unit-cell volume          =     234.5353 (a.u.)^3
     number of atoms/cell      =            4
     number of atomic types    =            2
     number of electrons       =        16.00
     number of Kohn-Sham states=           70
     kinetic-energy cutoff     =      40.0000  Ry
     charge density cutoff     =     160.0000  Ry
     Exchange-correlation=  SLA  PZ   NOGX NOGC
                           (   1   1   0   0   0   0   0)

     celldm(1)=   4.716000  celldm(2)=   0.000000  celldm(3)=   2.582000
     celldm(4)=   0.000000  celldm(5)=   0.000000  celldm(6)=   0.000000

     crystal axes: (cart. coord. in units of alat)
               a(1) = (   1.000000   0.000000   0.000000 )  
               a(2) = (  -0.500000   0.866025   0.000000 )  
               a(3) = (   0.000000   0.000000   2.582000 )  

     reciprocal axes: (cart. coord. in units 2 pi/alat)
               b(1) = (  1.000000  0.577350 -0.000000 )  
               b(2) = (  0.000000  1.154701  0.000000 )  
               b(3) = (  0.000000 -0.000000  0.387297 )  


     PseudoPot. # 1 for B  read from file:
     ./PPs/B.pz-vbc.UPF
     MD5 check sum: b59596b5d63edeea6a2b3a0beace49c5
     Pseudo is Norm-conserving, Zval =  3.0
     Generated by new atomic code, or converted to UPF format
     Using radial grid of  157 points,  1 beta functions with: 
                l(1) =   0

     PseudoPot. # 2 for N  read from file:
     ./PPs/N.pz-vbc.UPF
     MD5 check sum: f7a51f6f78412844d17f6e69b370b417
     Pseudo is Norm-conserving, Zval =  5.0
     Generated by new atomic code, or converted to UPF format
     Using radial grid of  161 points,  1 beta functions with: 
                l(1) =   0

     atomic species   valence    mass     pseudopotential
        B              3.00    10.00000     B ( 1.00)
        N              5.00    14.00000     N ( 1.00)

     12 Sym. Ops. (no inversion) found


                                    s                        frac. trans.

      isym =  1     identity                                     

 cryst.   s( 1) = (     1          0          0      )
                  (     0          1          0      )
                  (     0          0          1      )

 cart.    s( 1) = (  1.0000000  0.0000000  0.0000000 )
                  (  0.0000000  1.0000000  0.0000000 )
                  (  0.0000000  0.0000000  1.0000000 )


      isym =  2     180 deg rotation - cart. axis [0,1,0]        

 cryst.   s( 2) = (    -1          0          0      )
                  (     1          1          0      )
                  (     0          0         -1      )

 cart.    s( 2) = ( -1.0000000  0.0000000  0.0000000 )
                  (  0.0000000  1.0000000  0.0000000 )
                  (  0.0000000  0.0000000 -1.0000000 )


      isym =  3     120 deg rotation - cryst. axis [0,0,1]       

 cryst.   s( 3) = (     0          1          0      )
                  (    -1         -1          0      )
                  (     0          0          1      )

 cart.    s( 3) = ( -0.5000000 -0.8660254  0.0000000 )
                  (  0.8660254 -0.5000000  0.0000000 )
                  (  0.0000000  0.0000000  1.0000000 )


      isym =  4     120 deg rotation - cryst. axis [0,0,-1]      

 cryst.   s( 4) = (    -1         -1          0      )
                  (     1          0          0      )
                  (     0          0          1      )

 cart.    s( 4) = ( -0.5000000  0.8660254  0.0000000 )
                  ( -0.8660254 -0.5000000  0.0000000 )
                  (  0.0000000  0.0000000  1.0000000 )


      isym =  5     180 deg rotation - cryst. axis [1,-1,0]      

 cryst.   s( 5) = (     0         -1          0      )
                  (    -1          0          0      )
                  (     0          0         -1      )

 cart.    s( 5) = (  0.5000000 -0.8660254  0.0000000 )
                  ( -0.8660254 -0.5000000  0.0000000 )
                  (  0.0000000  0.0000000 -1.0000000 )


      isym =  6     180 deg rotation - cryst. axis [2,1,0]       

 cryst.   s( 6) = (     1          1          0      )
                  (     0         -1          0      )
                  (     0          0         -1      )

 cart.    s( 6) = (  0.5000000  0.8660254  0.0000000 )
                  (  0.8660254 -0.5000000  0.0000000 )
                  (  0.0000000  0.0000000 -1.0000000 )


      isym =  7     inv. 180 deg rotation - cart. axis [0,0,1]   

 cryst.   s( 7) = (     1          0          0      )
                  (     0          1          0      )
                  (     0          0         -1      )

 cart.    s( 7) = (  1.0000000  0.0000000  0.0000000 )
                  (  0.0000000  1.0000000  0.0000000 )
                  (  0.0000000  0.0000000 -1.0000000 )


      isym =  8     inv. 180 deg rotation - cart. axis [1,0,0]   

 cryst.   s( 8) = (    -1          0          0      )
                  (     1          1          0      )
                  (     0          0          1      )

 cart.    s( 8) = ( -1.0000000  0.0000000  0.0000000 )
                  (  0.0000000  1.0000000  0.0000000 )
                  (  0.0000000  0.0000000  1.0000000 )


      isym =  9     inv.  60 deg rotation - cryst. axis [0,0,1]  

 cryst.   s( 9) = (    -1         -1          0      )
                  (     1          0          0      )
                  (     0          0         -1      )

 cart.    s( 9) = ( -0.5000000  0.8660254  0.0000000 )
                  ( -0.8660254 -0.5000000  0.0000000 )
                  (  0.0000000  0.0000000 -1.0000000 )


      isym = 10     inv.  60 deg rotation - cryst. axis [0,0,-1] 

 cryst.   s(10) = (     0          1          0      )
                  (    -1         -1          0      )
                  (     0          0         -1      )

 cart.    s(10) = ( -0.5000000 -0.8660254  0.0000000 )
                  (  0.8660254 -0.5000000  0.0000000 )
                  (  0.0000000  0.0000000 -1.0000000 )


      isym = 11     inv. 180 deg rotation - cryst. axis [0,1,0]  

 cryst.   s(11) = (     1          1          0      )
                  (     0         -1          0      )
                  (     0          0          1      )

 cart.    s(11) = (  0.5000000  0.8660254  0.0000000 )
                  (  0.8660254 -0.5000000  0.0000000 )
                  (  0.0000000  0.0000000  1.0000000 )


      isym = 12     inv. 180 deg rotation - cryst. axis [1,1,0]  

 cryst.   s(12) = (     0         -1          0      )
                  (    -1          0          0      )
                  (     0          0          1      )

 cart.    s(12) = (  0.5000000 -0.8660254  0.0000000 )
                  ( -0.8660254 -0.5000000  0.0000000 )
                  (  0.0000000  0.0000000  1.0000000 )


     point group D_3h (-62m)
     there are  6 classes
     the character table:

       E     2C3   3C2   s_h   2S3   3s_v 
A'_1   1.00  1.00  1.00  1.00  1.00  1.00
A'_2   1.00  1.00 -1.00  1.00  1.00 -1.00
E'     2.00 -1.00  0.00  2.00 -1.00  0.00
A''1   1.00  1.00  1.00 -1.00 -1.00 -1.00
A''2   1.00  1.00 -1.00 -1.00 -1.00  1.00
E''    2.00 -1.00  0.00 -2.00  1.00  0.00

     the symmetry operations in each class and the name of the first element:

     E        1
          identity                                               
     2C3      3    4
          120 deg rotation - cryst. axis [0,0,1]                 
     3C2      2    6    5
          180 deg rotation - cart. axis [0,1,0]                  
     s_h      7
          inv. 180 deg rotation - cart. axis [0,0,1]             
     2S3      9   10
          inv.  60 deg rotation - cryst. axis [0,0,1]            
     3s_v     8   11   12
          inv. 180 deg rotation - cart. axis [1,0,0]             

   Cartesian axes

     site n.     atom                  positions (alat units)
         1           B   tau(   1) = (   0.5000001   0.2886751   0.0000000  )
         2           N   tau(   2) = (  -0.5000001  -0.2886751   0.0000000  )
         3           B   tau(   3) = (  -0.5000001  -0.2886751   1.2910000  )
         4           N   tau(   4) = (   0.5000001   0.2886751   1.2910000  )

   Crystallographic axes

     site n.     atom                  positions (cryst. coord.)
         1           B   tau(   1) = (  0.6666667  0.3333333  0.0000000  )
         2           N   tau(   2) = ( -0.6666667 -0.3333333  0.0000000  )
         3           B   tau(   3) = ( -0.6666667 -0.3333333  0.5000000  )
         4           N   tau(   4) = (  0.6666667  0.3333333  0.5000000  )

     number of k points=    57
                       cart. coord. in units 2pi/alat
        k(    1) = (   0.0000000   0.0000000   0.0000000), wk =   0.0034722
        k(    2) = (   0.0000000   0.0000000   0.0968242), wk =   0.0069444
        k(    3) = (   0.0000000   0.0000000  -0.1936483), wk =   0.0034722
        k(    4) = (   0.0000000   0.0962250   0.0000000), wk =   0.0208333
        k(    5) = (   0.0000000   0.0962250   0.0968242), wk =   0.0416667
        k(    6) = (   0.0000000   0.0962250  -0.1936483), wk =   0.0208333
        k(    7) = (   0.0000000   0.1924501   0.0000000), wk =   0.0208333
        k(    8) = (   0.0000000   0.1924501   0.0968242), wk =   0.0416667
        k(    9) = (   0.0000000   0.1924501  -0.1936483), wk =   0.0208333
        k(   10) = (   0.0000000   0.2886751   0.0000000), wk =   0.0208333
        k(   11) = (   0.0000000   0.2886751   0.0968242), wk =   0.0416667
        k(   12) = (   0.0000000   0.2886751  -0.1936483), wk =   0.0208333
        k(   13) = (   0.0000000   0.3849002   0.0000000), wk =   0.0208333
        k(   14) = (   0.0000000   0.3849002   0.0968242), wk =   0.0416667
        k(   15) = (   0.0000000   0.3849002  -0.1936483), wk =   0.0208333
        k(   16) = (   0.0000000   0.4811252   0.0000000), wk =   0.0208333
        k(   17) = (   0.0000000   0.4811252   0.0968242), wk =   0.0416667
        k(   18) = (   0.0000000   0.4811252  -0.1936483), wk =   0.0208333
        k(   19) = (   0.0000000  -0.5773503   0.0000000), wk =   0.0104167
        k(   20) = (   0.0000000  -0.5773503   0.0968242), wk =   0.0208333
        k(   21) = (   0.0000000  -0.5773503  -0.1936483), wk =   0.0104167
        k(   22) = (   0.0833333   0.1443376   0.0000000), wk =   0.0208333
        k(   23) = (   0.0833333   0.1443376   0.0968242), wk =   0.0416667
        k(   24) = (   0.0833333   0.1443376  -0.1936483), wk =   0.0208333
        k(   25) = (   0.0833333   0.2405626   0.0000000), wk =   0.0416667
        k(   26) = (   0.0833333   0.2405626   0.0968242), wk =   0.0833333
        k(   27) = (   0.0833333   0.2405626  -0.1936483), wk =   0.0416667
        k(   28) = (   0.0833333   0.3367877   0.0000000), wk =   0.0416667
        k(   29) = (   0.0833333   0.3367877   0.0968242), wk =   0.0833333
        k(   30) = (   0.0833333   0.3367877  -0.1936483), wk =   0.0416667
        k(   31) = (   0.0833333   0.4330127   0.0000000), wk =   0.0416667
        k(   32) = (   0.0833333   0.4330127   0.0968242), wk =   0.0833333
        k(   33) = (   0.0833333   0.4330127  -0.1936483), wk =   0.0416667
        k(   34) = (   0.0833333   0.5292377   0.0000000), wk =   0.0416667
        k(   35) = (   0.0833333   0.5292377   0.0968242), wk =   0.0833333
        k(   36) = (   0.0833333   0.5292377  -0.1936483), wk =   0.0416667
        k(   37) = (   0.1666667   0.2886751   0.0000000), wk =   0.0208333
        k(   38) = (   0.1666667   0.2886751   0.0968242), wk =   0.0416667
        k(   39) = (   0.1666667   0.2886751  -0.1936483), wk =   0.0208333
        k(   40) = (   0.1666667   0.3849002   0.0000000), wk =   0.0416667
        k(   41) = (   0.1666667   0.3849002   0.0968242), wk =   0.0833333
        k(   42) = (   0.1666667   0.3849002  -0.1936483), wk =   0.0416667
        k(   43) = (   0.1666667   0.4811252   0.0000000), wk =   0.0416667
        k(   44) = (   0.1666667   0.4811252   0.0968242), wk =   0.0833333
        k(   45) = (   0.1666667   0.4811252  -0.1936483), wk =   0.0416667
        k(   46) = (   0.1666667   0.5773503   0.0000000), wk =   0.0208333
        k(   47) = (   0.1666667   0.5773503   0.0968242), wk =   0.0416667
        k(   48) = (   0.1666667   0.5773503  -0.1936483), wk =   0.0208333
        k(   49) = (   0.2500000   0.4330127   0.0000000), wk =   0.0208333
        k(   50) = (   0.2500000   0.4330127   0.0968242), wk =   0.0416667
        k(   51) = (   0.2500000   0.4330127  -0.1936483), wk =   0.0208333
        k(   52) = (   0.2500000   0.5292377   0.0000000), wk =   0.0416667
        k(   53) = (   0.2500000   0.5292377   0.0968242), wk =   0.0833333
        k(   54) = (   0.2500000   0.5292377  -0.1936483), wk =   0.0416667
        k(   55) = (   0.3333333   0.5773503   0.0000000), wk =   0.0069444
        k(   56) = (   0.3333333   0.5773503   0.0968242), wk =   0.0138889
        k(   57) = (   0.3333333   0.5773503  -0.1936483), wk =   0.0069444

                       cryst. coord.
        k(    1) = (   0.0000000   0.0000000   0.0000000), wk =   0.0034722
        k(    2) = (   0.0000000   0.0000000   0.2500000), wk =   0.0069444
        k(    3) = (   0.0000000   0.0000000  -0.5000000), wk =   0.0034722
        k(    4) = (   0.0000000   0.0833333   0.0000000), wk =   0.0208333
        k(    5) = (   0.0000000   0.0833333   0.2500000), wk =   0.0416667
        k(    6) = (   0.0000000   0.0833333  -0.5000000), wk =   0.0208333
        k(    7) = (   0.0000000   0.1666667   0.0000000), wk =   0.0208333
        k(    8) = (   0.0000000   0.1666667   0.2500000), wk =   0.0416667
        k(    9) = (   0.0000000   0.1666667  -0.5000000), wk =   0.0208333
        k(   10) = (   0.0000000   0.2500000   0.0000000), wk =   0.0208333
        k(   11) = (   0.0000000   0.2500000   0.2500000), wk =   0.0416667
        k(   12) = (   0.0000000   0.2500000  -0.5000000), wk =   0.0208333
        k(   13) = (   0.0000000   0.3333333   0.0000000), wk =   0.0208333
        k(   14) = (   0.0000000   0.3333333   0.2500000), wk =   0.0416667
        k(   15) = (   0.0000000   0.3333333  -0.5000000), wk =   0.0208333
        k(   16) = (   0.0000000   0.4166667   0.0000000), wk =   0.0208333
        k(   17) = (   0.0000000   0.4166667   0.2500000), wk =   0.0416667
        k(   18) = (   0.0000000   0.4166667  -0.5000000), wk =   0.0208333
        k(   19) = (   0.0000000  -0.5000000   0.0000000), wk =   0.0104167
        k(   20) = (   0.0000000  -0.5000000   0.2500000), wk =   0.0208333
        k(   21) = (   0.0000000  -0.5000000  -0.5000000), wk =   0.0104167
        k(   22) = (   0.0833333   0.0833333   0.0000000), wk =   0.0208333
        k(   23) = (   0.0833333   0.0833333   0.2500000), wk =   0.0416667
        k(   24) = (   0.0833333   0.0833333  -0.5000000), wk =   0.0208333
        k(   25) = (   0.0833333   0.1666667   0.0000000), wk =   0.0416667
        k(   26) = (   0.0833333   0.1666667   0.2500000), wk =   0.0833333
        k(   27) = (   0.0833333   0.1666667  -0.5000000), wk =   0.0416667
        k(   28) = (   0.0833333   0.2500000   0.0000000), wk =   0.0416667
        k(   29) = (   0.0833333   0.2500000   0.2500000), wk =   0.0833333
        k(   30) = (   0.0833333   0.2500000  -0.5000000), wk =   0.0416667
        k(   31) = (   0.0833333   0.3333333   0.0000000), wk =   0.0416667
        k(   32) = (   0.0833333   0.3333333   0.2500000), wk =   0.0833333
        k(   33) = (   0.0833333   0.3333333  -0.5000000), wk =   0.0416667
        k(   34) = (   0.0833333   0.4166667   0.0000000), wk =   0.0416667
        k(   35) = (   0.0833333   0.4166667   0.2500000), wk =   0.0833333
        k(   36) = (   0.0833333   0.4166667  -0.5000000), wk =   0.0416667
        k(   37) = (   0.1666667   0.1666667   0.0000000), wk =   0.0208333
        k(   38) = (   0.1666667   0.1666667   0.2500000), wk =   0.0416667
        k(   39) = (   0.1666667   0.1666667  -0.5000000), wk =   0.0208333
        k(   40) = (   0.1666667   0.2500000   0.0000000), wk =   0.0416667
        k(   41) = (   0.1666667   0.2500000   0.2500000), wk =   0.0833333
        k(   42) = (   0.1666667   0.2500000  -0.5000000), wk =   0.0416667
        k(   43) = (   0.1666667   0.3333333   0.0000000), wk =   0.0416667
        k(   44) = (   0.1666667   0.3333333   0.2500000), wk =   0.0833333
        k(   45) = (   0.1666667   0.3333333  -0.5000000), wk =   0.0416667
        k(   46) = (   0.1666667   0.4166667   0.0000000), wk =   0.0208333
        k(   47) = (   0.1666667   0.4166667   0.2500000), wk =   0.0416667
        k(   48) = (   0.1666667   0.4166667  -0.5000000), wk =   0.0208333
        k(   49) = (   0.2500000   0.2500000   0.0000000), wk =   0.0208333
        k(   50) = (   0.2500000   0.2500000   0.2500000), wk =   0.0416667
        k(   51) = (   0.2500000   0.2500000  -0.5000000), wk =   0.0208333
        k(   52) = (   0.2500000   0.3333333   0.0000000), wk =   0.0416667
        k(   53) = (   0.2500000   0.3333333   0.2500000), wk =   0.0833333
        k(   54) = (   0.2500000   0.3333333  -0.5000000), wk =   0.0416667
        k(   55) = (   0.3333333   0.3333333   0.0000000), wk =   0.0069444
        k(   56) = (   0.3333333   0.3333333   0.2500000), wk =   0.0138889
        k(   57) = (   0.3333333   0.3333333  -0.5000000), wk =   0.0069444

     Dense  grid:     8029 G-vectors     FFT dimensions: (  20,  20,  50)

     Dynamical RAM for                 wfc:       0.04 MB

     Dynamical RAM for     wfc (w. buffer):       0.04 MB

     Dynamical RAM for           str. fact:       0.01 MB

     Dynamical RAM for           local pot:       0.00 MB

     Dynamical RAM for          nlocal pot:       0.00 MB

     Dynamical RAM for                qrad:       0.02 MB

     Dynamical RAM for          rho,v,vnew:       0.03 MB

     Dynamical RAM for           G-vectors:       0.02 MB

     Dynamical RAM for          h,s,v(r/c):       0.90 MB

     Dynamical RAM for          <psi|beta>:       0.00 MB

     Dynamical RAM for                 psi:       0.07 MB

     Dynamical RAM for                hpsi:       0.07 MB

     Dynamical RAM for      wfcinit/wfcrot:       0.19 MB

     Estimated static dynamical RAM per process >       0.16 MB

     Estimated max dynamical RAM per process >       1.21 MB

     Estimated total dynamical RAM >      33.96 MB

     The potential is recalculated from file :
     run_output/hBN.save/charge-density

     Starting wfcs are   16 randomized atomic wfcs +   54 random wfcs

     Band Structure Calculation
     Davidson diagonalization with overlap

     Computing kpt #:     1  of    57
     total cpu time spent up to now is        0.9 secs

     Computing kpt #:     2  of    57
     total cpu time spent up to now is        1.1 secs

     Computing kpt #:     3  of    57
     total cpu time spent up to now is        1.3 secs

     Computing kpt #:     4  of    57
     total cpu time spent up to now is        1.5 secs

     Computing kpt #:     5  of    57
     total cpu time spent up to now is        1.7 secs

     Computing kpt #:     6  of    57
     total cpu time spent up to now is        2.0 secs

     Computing kpt #:     7  of    57
     total cpu time spent up to now is        2.2 secs

     Computing kpt #:     8  of    57
     total cpu time spent up to now is        2.4 secs

     Computing kpt #:     9  of    57
     total cpu time spent up to now is        2.6 secs

     Computing kpt #:    10  of    57
     total cpu time spent up to now is        2.8 secs

     Computing kpt #:    11  of    57
     total cpu time spent up to now is        3.1 secs

     Computing kpt #:    12  of    57
     total cpu time spent up to now is        3.3 secs

     Computing kpt #:    13  of    57
     total cpu time spent up to now is        3.4 secs

     Computing kpt #:    14  of    57
     total cpu time spent up to now is        3.6 secs

     Computing kpt #:    15  of    57
     total cpu time spent up to now is        3.9 secs

     Computing kpt #:    16  of    57
     total cpu time spent up to now is        4.1 secs

     Computing kpt #:    17  of    57
     total cpu time spent up to now is        4.3 secs

     Computing kpt #:    18  of    57
     total cpu time spent up to now is        4.5 secs

     Computing kpt #:    19  of    57
     total cpu time spent up to now is        4.7 secs

     Computing kpt #:    20  of    57
     total cpu time spent up to now is        4.9 secs

     Computing kpt #:    21  of    57
     total cpu time spent up to now is        5.0 secs

     Computing kpt #:    22  of    57
     total cpu time spent up to now is        5.2 secs

     Computing kpt #:    23  of    57
     total cpu time spent up to now is        5.4 secs

     Computing kpt #:    24  of    57
     total cpu time spent up to now is        5.6 secs

     Computing kpt #:    25  of    57
     total cpu time spent up to now is        5.9 secs

     Computing kpt #:    26  of    57
     total cpu time spent up to now is        6.1 secs

     Computing kpt #:    27  of    57
     total cpu time spent up to now is        6.3 secs

     Computing kpt #:    28  of    57
     total cpu time spent up to now is        6.5 secs

     Computing kpt #:    29  of    57
     total cpu time spent up to now is        6.8 secs

     Computing kpt #:    30  of    57
     total cpu time spent up to now is        7.0 secs

     Computing kpt #:    31  of    57
     total cpu time spent up to now is        7.2 secs

     Computing kpt #:    32  of    57
     total cpu time spent up to now is        7.4 secs

     Computing kpt #:    33  of    57
     total cpu time spent up to now is        7.6 secs

     Computing kpt #:    34  of    57
     total cpu time spent up to now is        7.8 secs

     Computing kpt #:    35  of    57
     total cpu time spent up to now is        8.0 secs

     Computing kpt #:    36  of    57
     total cpu time spent up to now is        8.2 secs

     Computing kpt #:    37  of    57
     total cpu time spent up to now is        8.4 secs

     Computing kpt #:    38  of    57
     total cpu time spent up to now is        8.6 secs

     Computing kpt #:    39  of    57
     total cpu time spent up to now is        8.8 secs

     Computing kpt #:    40  of    57
     total cpu time spent up to now is        9.1 secs

     Computing kpt #:    41  of    57
     total cpu time spent up to now is        9.3 secs

     Computing kpt #:    42  of    57
     total cpu time spent up to now is        9.5 secs

     Computing kpt #:    43  of    57
     total cpu time spent up to now is        9.7 secs

     Computing kpt #:    44  of    57
     total cpu time spent up to now is        9.9 secs

     Computing kpt #:    45  of    57
     total cpu time spent up to now is       10.1 secs

     Computing kpt #:    46  of    57
     total cpu time spent up to now is       10.3 secs

     Computing kpt #:    47  of    57
     total cpu time spent up to now is       10.5 secs

     Computing kpt #:    48  of    57
     total cpu time spent up to now is       10.7 secs

     Computing kpt #:    49  of    57
     total cpu time spent up to now is       10.9 secs

     Computing kpt #:    50  of    57
     total cpu time spent up to now is       11.2 secs

     Computing kpt #:    51  of    57
     total cpu time spent up to now is       11.4 secs

     Computing kpt #:    52  of    57
     total cpu time spent up to now is       11.6 secs

     Computing kpt #:    53  of    57
     total cpu time spent up to now is       11.8 secs

     Computing kpt #:    54  of    57
     total cpu time spent up to now is       12.0 secs

     Computing kpt #:    55  of    57
     total cpu time spent up to now is       12.2 secs

     Computing kpt #:    56  of    57
     total cpu time spent up to now is       12.5 secs

     Computing kpt #:    57  of    57
     total cpu time spent up to now is       12.7 secs

     ethr =  5.00E-06,  avg # of iterations = 13.3

     total cpu time spent up to now is       12.7 secs

     End of band structure calculation

          k = 0.0000 0.0000 0.0000 (   997 PWs)   bands (ev):

   -13.2096 -12.8333  -1.5731   1.0002   3.8160   3.8160   3.8193   3.8193
     9.9439  15.8779  16.4756  16.4756  16.6690  16.6690  17.1675  18.3451
    19.7627  22.1383  27.9823  29.7591  30.7465  33.0047  33.0047  34.9342
    35.7939  35.7939  36.7855  37.5063  37.5063  40.2112  40.2112  41.3783
    41.3783  41.9151  41.9151  44.0042  45.6799  46.1495  49.6027  51.1777
    51.6628  51.6628  52.8358  52.8358  54.3026  55.9382  55.9382  58.9728
    58.9728  59.3997  59.7797  59.7797  63.1704  64.8217  64.8217  66.1405
    76.8400  76.8400  77.1758  77.2648  78.4538  78.4538  79.3363  79.3363
    79.8390  80.1710  80.1711  80.6405  83.9486  83.9486

     occupation numbers 
     1.0000   1.0000   1.0000   1.0000   1.0000   1.0000   1.0000   1.0000
     0.0000   0.0000   0.0000   0.0000   0.0000   0.0000   0.0000   0.0000
     0.0000   0.0000   0.0000   0.0000   0.0000   0.0000   0.0000   0.0000
     0.0000   0.0000   0.0000   0.0000   0.0000   0.0000   0.0000   0.0000
     0.0000   0.0000   0.0000   0.0000   0.0000   0.0000   0.0000   0.0000
     0.0000   0.0000   0.0000   0.0000   0.0000   0.0000   0.0000   0.0000
     0.0000   0.0000   0.0000   0.0000   0.0000   0.0000   0.0000   0.0000
     0.0000   0.0000   0.0000   0.0000   0.0000   0.0000   0.0000   0.0000
     0.0000   0.0000   0.0000   0.0000   0.0000   0.0000

          k = 0.0000 0.0000 0.0968 (  1015 PWs)   bands (ev):

   -13.1616 -12.8929  -1.2513   0.4974   3.7666   3.7666   3.7723   3.7724
    10.7646  14.7442  16.4929  16.4929  16.6371  16.6371  17.5587  18.2061
    19.9970  21.4854  29.0692  29.7944  30.8383  33.3646  33.3646  34.1087
    36.0760  36.0760  36.1987  36.1987  37.7206  39.1955  39.1955  42.2046
    42.2047  44.2155  44.3795  44.4855  44.4855  45.4704  47.7953  49.8088
    49.8088  50.5295  50.5295  52.7904  56.1952  57.3434  57.3434  58.8467
    58.8467  60.3624  61.1606  61.1606  63.8083  65.5687  67.3123  67.3123
    71.9659  72.3320  72.3320  74.7724  78.1633  78.1633  78.3704  78.3704
    78.5216  78.5216  82.4202  84.8928  85.2627  85.5744

     occupation numbers 
     1.0000   1.0000   1.0000   1.0000   1.0000   1.0000   1.0000   1.0000
     0.0000   0.0000   0.0000   0.0000   0.0000   0.0000   0.0000   0.0000
     0.0000   0.0000   0.0000   0.0000   0.0000   0.0000   0.0000   0.0000
     0.0000   0.0000   0.0000   0.0000   0.0000   0.0000   0.0000   0.0000
     0.0000   0.0000   0.0000   0.0000   0.0000   0.0000   0.0000   0.0000
     0.0000   0.0000   0.0000   0.0000   0.0000   0.0000   0.0000   0.0000
     0.0000   0.0000   0.0000   0.0000   0.0000   0.0000   0.0000   0.0000
     0.0000   0.0000   0.0000   0.0000   0.0000   0.0000   0.0000   0.0000
     0.0000   0.0000   0.0000   0.0000   0.0000   0.0000

          k = 0.0000 0.0000-0.1936 (  1008 PWs)   bands (ev):

   -13.0301 -13.0300  -0.4437  -0.4437   3.7802   3.7802   3.7802   3.7802
    12.6799  12.6799  16.5650  16.5650  16.5650  16.5650  17.9849  17.9849
    20.5923  20.5923  29.8309  29.8309  32.2456  32.2456  34.4274  34.4274
    34.4274  34.4274  37.3517  37.3517  37.3517  37.3517  40.4062  40.4062
    44.7841  44.7841  45.4463  45.4463  45.4463  45.4463  48.0100  48.0100
    48.0100  48.0100  50.0082  50.0082  57.9836  57.9836  57.9836  57.9836
    61.2587  61.2587  63.5985  63.5985  66.2825  66.2825  66.2825  66.2825
    70.9937  70.9937  72.4357  72.4357  72.4357  72.4357  78.3837  78.3837
    78.3838  78.3838  85.4134  85.4134  86.0463  86.0463

     occupation numbers 
     1.0000   1.0000   1.0000   1.0000   1.0000   1.0000   1.0000   1.0000
     0.0000   0.0000   0.0000   0.0000   0.0000   0.0000   0.0000   0.0000
     0.0000   0.0000   0.0000   0.0000   0.0000   0.0000   0.0000   0.0000
     0.0000   0.0000   0.0000   0.0000   0.0000   0.0000   0.0000   0.0000
     0.0000   0.0000   0.0000   0.0000   0.0000   0.0000   0.0000   0.0000
     0.0000   0.0000   0.0000   0.0000   0.0000   0.0000   0.0000   0.0000
     0.0000   0.0000   0.0000   0.0000   0.0000   0.0000   0.0000   0.0000
     0.0000   0.0000   0.0000   0.0000   0.0000   0.0000   0.0000   0.0000
     0.0000   0.0000   0.0000   0.0000   0.0000   0.0000

          k = 0.0000 0.0962 0.0000 (  1013 PWs)   bands (ev):

   -13.0747 -12.7036  -1.3856   1.1645   3.1760   3.2044   3.4791   3.5145
    10.2072  15.7403  16.2655  16.5030  17.0817  17.2794  17.7719  17.7824
    20.2940  21.8241  28.2738  30.1150  31.0611  31.0638  31.6096  33.7888
    35.2635  36.4631  37.4023  37.4279  37.6272  38.4447  40.5941  41.3954
    43.2351  43.3960  43.4064  45.4170  45.9871  47.2955  50.1903  50.5309
    50.6192  51.5600  52.7150  52.8388  53.4244  54.8048  56.4350  58.4543
    58.7149  59.9276  61.0905  61.3578  62.2172  64.9635  65.7918  67.7218
    74.9047  75.5785  75.6590  75.7885  77.2676  77.7756  78.6631  79.0291
    79.3579  80.4151  80.4274  81.5217  82.6664  85.4449

     occupation numbers 
     1.0000   1.0000   1.0000   1.0000   1.0000   1.0000   1.0000   1.0000
     0.0000   0.0000   0.0000   0.0000   0.0000   0.0000   0.0000   0.0000
     0.0000   0.0000   0.0000   0.0000   0.0000   0.0000   0.0000   0.0000
     0.0000   0.0000   0.0000   0.0000   0.0000   0.0000   0.0000   0.0000
     0.0000   0.0000   0.0000   0.0000   0.0000   0.0000   0.0000   0.0000
     0.0000   0.0000   0.0000   0.0000   0.0000   0.0000   0.0000   0.0000
     0.0000   0.0000   0.0000   0.0000   0.0000   0.0000   0.0000   0.0000
     0.0000   0.0000   0.0000   0.0000   0.0000   0.0000   0.0000   0.0000
     0.0000   0.0000   0.0000   0.0000   0.0000   0.0000

          k = 0.0000 0.0962 0.0968 (  1005 PWs)   bands (ev):

   -13.0226 -12.7604  -1.0651   0.6889   3.2074   3.2196   3.5044   3.5204
    11.0101  14.8052  16.3607  16.5125  17.1307  17.2576  17.7997  17.8297
    20.3928  21.3452  29.1115  30.1047  31.0008  31.6298  31.9851  33.3314
    34.8337  35.4013  35.9553  37.9984  39.5940  40.1959  40.2132  41.1285
    41.5405  43.5869  44.9868  45.9298  45.9684  46.8316  48.3371  48.4795
    49.0377  51.5022  51.7898  52.4779  56.5235  56.7260  56.9401  58.9623
    59.3728  60.1940  60.9561  61.7239  63.7633  64.3760  68.0026  69.1354
    71.4116  71.5312  72.9363  73.8819  75.5830  75.9828  78.9385  79.4299
    79.4820  80.8976  81.4850  84.5727  84.7203  84.8544

     occupation numbers 
     1.0000   1.0000   1.0000   1.0000   1.0000   1.0000   1.0000   1.0000
     0.0000   0.0000   0.0000   0.0000   0.0000   0.0000   0.0000   0.0000
     0.0000   0.0000   0.0000   0.0000   0.0000   0.0000   0.0000   0.0000
     0.0000   0.0000   0.0000   0.0000   0.0000   0.0000   0.0000   0.0000
     0.0000   0.0000   0.0000   0.0000   0.0000   0.0000   0.0000   0.0000
     0.0000   0.0000   0.0000   0.0000   0.0000   0.0000   0.0000   0.0000
     0.0000   0.0000   0.0000   0.0000   0.0000   0.0000   0.0000   0.0000
     0.0000   0.0000   0.0000   0.0000   0.0000   0.0000   0.0000   0.0000
     0.0000   0.0000   0.0000   0.0000   0.0000   0.0000

          k = 0.0000 0.0962-0.1936 (  1008 PWs)   bands (ev):

   -12.8961 -12.8960  -0.2748  -0.2748   3.2192   3.2192   3.5173   3.5173
    12.8681  12.8681  16.4497  16.4498  17.1874  17.1874  17.8339  17.8339
    20.7281  20.7281  29.9542  29.9542  31.5186  31.5186  33.0903  33.0903
    33.8334  33.8334  37.6680  37.6680  39.0835  39.0835  42.1575  42.1575
    42.8331  42.8331  44.2584  44.2584  46.1817  46.1817  48.8098  48.8098
    49.3725  49.3725  51.0021  51.0021  57.7328  57.7328  57.9709  57.9709
    61.2097  61.2097  63.1534  63.1534  65.5534  65.5534  66.4318  66.4318
    69.3603  69.3603  73.1988  73.1988  75.7296  75.7296  75.9882  75.9882
    79.4774  79.4774  85.1005  85.1005  87.4986  87.4986

     occupation numbers 
     1.0000   1.0000   1.0000   1.0000   1.0000   1.0000   1.0000   1.0000
     0.0000   0.0000   0.0000   0.0000   0.0000   0.0000   0.0000   0.0000
     0.0000   0.0000   0.0000   0.0000   0.0000   0.0000   0.0000   0.0000
     0.0000   0.0000   0.0000   0.0000   0.0000   0.0000   0.0000   0.0000
     0.0000   0.0000   0.0000   0.0000   0.0000   0.0000   0.0000   0.0000
     0.0000   0.0000   0.0000   0.0000   0.0000   0.0000   0.0000   0.0000
     0.0000   0.0000   0.0000   0.0000   0.0000   0.0000   0.0000   0.0000
     0.0000   0.0000   0.0000   0.0000   0.0000   0.0000   0.0000   0.0000
     0.0000   0.0000   0.0000   0.0000   0.0000   0.0000

          k = 0.0000 0.1925 0.0000 (   996 PWs)   bands (ev):

   -12.6673 -12.3173  -0.8028   1.6879   1.7177   1.7945   2.8549   2.8560
    10.8868  15.2829  15.8179  16.3254  16.4120  18.7864  18.9493  19.0206
    21.1688  21.5992  28.2484  28.6194  29.7679  30.7552  31.6575  32.1448
    34.7611  34.8082  35.7622  36.5792  38.7761  40.3671  40.7760  43.6177
    45.7533  45.8011  46.1160  46.3762  47.1468  47.9815  49.4015  50.0301
    50.4835  52.1761  53.1163  53.3314  53.6439  53.6865  56.9065  56.9571
    58.4877  59.3016  63.1444  63.5795  64.3884  65.4144  67.5614  71.2730
    71.8217  72.6940  72.8894  73.2144  76.4707  77.1491  77.2839  78.2334
    79.9495  80.2762  81.6169  82.8040  82.9686  83.6623

     occupation numbers 
     1.0000   1.0000   1.0000   1.0000   1.0000   1.0000   1.0000   1.0000
     0.0000   0.0000   0.0000   0.0000   0.0000   0.0000   0.0000   0.0000
     0.0000   0.0000   0.0000   0.0000   0.0000   0.0000   0.0000   0.0000
     0.0000   0.0000   0.0000   0.0000   0.0000   0.0000   0.0000   0.0000
     0.0000   0.0000   0.0000   0.0000   0.0000   0.0000   0.0000   0.0000
     0.0000   0.0000   0.0000   0.0000   0.0000   0.0000   0.0000   0.0000
     0.0000   0.0000   0.0000   0.0000   0.0000   0.0000   0.0000   0.0000
     0.0000   0.0000   0.0000   0.0000   0.0000   0.0000   0.0000   0.0000
     0.0000   0.0000   0.0000   0.0000   0.0000   0.0000

          k = 0.0000 0.1925 0.0968 (  1002 PWs)   bands (ev):

   -12.6197 -12.3713  -0.5206   1.1901   1.7245   1.7944   2.8589   2.8790
    11.6262  14.6856  15.9258  16.2319  16.6103  18.2940  18.8200  18.9309
    21.2925  21.5563  27.8012  29.2143  30.1530  30.9931  31.8310  32.3958
    33.0724  34.8119  36.3451  38.7220  38.8345  40.1678  41.1200  42.3937
    44.0268  44.6175  45.5650  46.2493  47.8426  48.4522  49.1117  49.7441
    50.5226  51.4557  52.0982  52.4207  55.6170  57.2376  58.0470  58.4832
    59.0685  59.6870  61.0993  61.8233  64.5122  66.6557  68.8721  69.3109
    69.5787  71.1718  72.4386  73.9132  73.9378  76.1846  78.8376  80.3843
    80.7656  81.4945  81.6951  82.2239  83.7718  84.1756

     occupation numbers 
     1.0000   1.0000   1.0000   1.0000   1.0000   1.0000   1.0000   1.0000
     0.0000   0.0000   0.0000   0.0000   0.0000   0.0000   0.0000   0.0000
     0.0000   0.0000   0.0000   0.0000   0.0000   0.0000   0.0000   0.0000
     0.0000   0.0000   0.0000   0.0000   0.0000   0.0000   0.0000   0.0000
     0.0000   0.0000   0.0000   0.0000   0.0000   0.0000   0.0000   0.0000
     0.0000   0.0000   0.0000   0.0000   0.0000   0.0000   0.0000   0.0000
     0.0000   0.0000   0.0000   0.0000   0.0000   0.0000   0.0000   0.0000
     0.0000   0.0000   0.0000   0.0000   0.0000   0.0000   0.0000   0.0000
     0.0000   0.0000   0.0000   0.0000   0.0000   0.0000

          k = 0.0000 0.1925-0.1936 (  1004 PWs)   bands (ev):

   -12.4995 -12.4995   0.2563   0.2563   1.7691   1.7692   2.8576   2.8576
    13.2569  13.2569  16.0946  16.0946  17.2198  17.2198  18.8757  18.8757
    21.4513  21.4513  28.3170  28.3170  31.2827  31.2827  31.7386  31.7386
    33.8768  33.8768  37.9747  37.9747  40.2597  40.2597  41.5326  41.5326
    43.2060  43.2060  44.9057  44.9057  47.8688  47.8688  50.1498  50.1498
    50.9264  50.9264  52.2525  52.2525  57.4675  57.4676  57.7994  57.7994
    61.1845  61.1845  63.7071  63.7071  63.9538  63.9538  65.6038  65.6038
    70.7989  70.7989  72.0527  72.0528  76.5188  76.5188  79.0111  79.0111
    81.3866  81.3866  82.3817  82.3818  84.0535  84.0535

     occupation numbers 
     1.0000   1.0000   1.0000   1.0000   1.0000   1.0000   1.0000   1.0000
     0.0000   0.0000   0.0000   0.0000   0.0000   0.0000   0.0000   0.0000
     0.0000   0.0000   0.0000   0.0000   0.0000   0.0000   0.0000   0.0000
     0.0000   0.0000   0.0000   0.0000   0.0000   0.0000   0.0000   0.0000
     0.0000   0.0000   0.0000   0.0000   0.0000   0.0000   0.0000   0.0000
     0.0000   0.0000   0.0000   0.0000   0.0000   0.0000   0.0000   0.0000
     0.0000   0.0000   0.0000   0.0000   0.0000   0.0000   0.0000   0.0000
     0.0000   0.0000   0.0000   0.0000   0.0000   0.0000   0.0000   0.0000
     0.0000   0.0000   0.0000   0.0000   0.0000   0.0000

          k = 0.0000 0.2887 0.0000 (   992 PWs)   bands (ev):

   -12.0215 -11.7074  -0.1450  -0.0396   0.1144   2.0703   2.1502   2.5005
    11.8349  13.9831  14.5032  15.3722  16.3322  20.3369  20.6175  21.1883
    21.3598  23.1946  26.2114  27.7862  28.2649  29.7507  30.9825  33.3788
    33.6837  34.5437  35.0978  35.7959  39.4221  40.6615  43.6198  44.4215
    44.6484  46.1414  47.6488  48.2330  48.2998  49.1159  50.0025  51.6966
    51.7527  52.4610  52.6242  52.8189  53.9701  54.9823  56.5000  58.2028
    60.8602  62.0585  62.7935  65.5474  65.9826  68.0148  69.2340  69.9799
    70.1123  70.8688  72.1828  75.0331  75.5946  75.6744  75.7385  76.6365
    76.8462  78.2349  79.8259  80.2396  81.5223  82.2372

     occupation numbers 
     1.0000   1.0000   1.0000   1.0000   1.0000   1.0000   1.0000   1.0000
     0.0000   0.0000   0.0000   0.0000   0.0000   0.0000   0.0000   0.0000
     0.0000   0.0000   0.0000   0.0000   0.0000   0.0000   0.0000   0.0000
     0.0000   0.0000   0.0000   0.0000   0.0000   0.0000   0.0000   0.0000
     0.0000   0.0000   0.0000   0.0000   0.0000   0.0000   0.0000   0.0000
     0.0000   0.0000   0.0000   0.0000   0.0000   0.0000   0.0000   0.0000
     0.0000   0.0000   0.0000   0.0000   0.0000   0.0000   0.0000   0.0000
     0.0000   0.0000   0.0000   0.0000   0.0000   0.0000   0.0000   0.0000
     0.0000   0.0000   0.0000   0.0000   0.0000   0.0000

          k = 0.0000 0.2887 0.0968 (   995 PWs)   bands (ev):

   -11.9775 -11.7546  -0.1712  -0.0647   0.4283   2.0727   2.1017   2.1320
    12.3600  13.8961  14.6064  15.3970  16.3658  18.6579  21.2124  21.3355
    21.7551  23.0553  25.9244  27.2151  28.6574  30.7359  31.6099  31.7173
    34.0484  34.5000  35.8041  37.4127  39.3907  39.8868  42.2376  43.9182
    45.3682  45.5207  46.4305  47.4309  47.6648  49.4749  50.1366  50.5344
    51.6683  52.7125  53.4579  55.1329  55.6643  56.9786  57.0233  58.8818
    59.8385  60.4190  62.8391  63.9247  66.0357  67.5396  67.8041  70.3039
    70.4368  70.8791  72.0229  73.1426  75.0639  75.7153  76.1110  77.2993
    78.0867  79.6964  79.8271  80.6128  81.8303  82.2414

     occupation numbers 
     1.0000   1.0000   1.0000   1.0000   1.0000   1.0000   1.0000   1.0000
     0.0000   0.0000   0.0000   0.0000   0.0000   0.0000   0.0000   0.0000
     0.0000   0.0000   0.0000   0.0000   0.0000   0.0000   0.0000   0.0000
     0.0000   0.0000   0.0000   0.0000   0.0000   0.0000   0.0000   0.0000
     0.0000   0.0000   0.0000   0.0000   0.0000   0.0000   0.0000   0.0000
     0.0000   0.0000   0.0000   0.0000   0.0000   0.0000   0.0000   0.0000
     0.0000   0.0000   0.0000   0.0000   0.0000   0.0000   0.0000   0.0000
     0.0000   0.0000   0.0000   0.0000   0.0000   0.0000   0.0000   0.0000
     0.0000   0.0000   0.0000   0.0000   0.0000   0.0000

          k = 0.0000 0.2887-0.1936 (   994 PWs)   bands (ev):

   -11.8699 -11.8699  -0.1231  -0.1231   1.1967   1.1967   2.1243   2.1244
    13.2902  13.2902  15.2422  15.2422  16.9162  16.9163  21.2611  21.2612
    22.5779  22.5779  26.2502  26.2502  29.8051  29.8052  31.9514  31.9514
    34.4776  34.4776  37.1091  37.1091  40.7705  40.7705  40.7841  40.7841
    45.2062  45.2062  46.0979  46.0979  49.0317  49.0317  50.2451  50.2451
    52.9291  52.9291  53.9664  53.9664  58.1704  58.1704  58.8228  58.8228
    60.2355  60.2355  62.2689  62.2689  65.3914  65.3914  68.0643  68.0643
    70.6617  70.6617  72.3706  72.3706  76.1095  76.1095  78.3100  78.3100
    78.7235  78.7236  79.9197  79.9197  82.0928  82.0928

     occupation numbers 
     1.0000   1.0000   1.0000   1.0000   1.0000   1.0000   1.0000   1.0000
     0.0000   0.0000   0.0000   0.0000   0.0000   0.0000   0.0000   0.0000
     0.0000   0.0000   0.0000   0.0000   0.0000   0.0000   0.0000   0.0000
     0.0000   0.0000   0.0000   0.0000   0.0000   0.0000   0.0000   0.0000
     0.0000   0.0000   0.0000   0.0000   0.0000   0.0000   0.0000   0.0000
     0.0000   0.0000   0.0000   0.0000   0.0000   0.0000   0.0000   0.0000
     0.0000   0.0000   0.0000   0.0000   0.0000   0.0000   0.0000   0.0000
     0.0000   0.0000   0.0000   0.0000   0.0000   0.0000   0.0000   0.0000
     0.0000   0.0000   0.0000   0.0000   0.0000   0.0000

          k = 0.0000 0.3849 0.0000 (  1004 PWs)   bands (ev):

   -11.2097 -10.9463  -1.9864  -1.8801   1.3356   1.4045   1.4771   3.4887
    11.7803  12.9316  12.9468  15.0204  16.3823  20.3383  20.8346  23.8442
    24.0258  24.7855  25.0183  26.5770  27.1764  28.5126  31.5306  32.3258
    34.0397  34.1909  34.8527  35.7368  38.5382  41.6892  42.3973  44.4662
    44.8974  46.9667  48.1677  48.3288  49.3635  50.1592  51.1104  51.1409
    51.2141  53.4275  54.1572  56.1834  56.2451  57.6505  58.7833  59.2448
    63.7378  65.0516  65.7160  66.2876  66.9164  67.3127  67.5338  68.8057
    69.4355  70.1078  72.0221  72.4042  72.8204  73.7609  74.8712  75.4743
    75.9732  76.7942  76.8538  76.9665  79.1981  79.8732

     occupation numbers 
     1.0000   1.0000   1.0000   1.0000   1.0000   1.0000   1.0000   1.0000
     0.0000   0.0000   0.0000   0.0000   0.0000   0.0000   0.0000   0.0000
     0.0000   0.0000   0.0000   0.0000   0.0000   0.0000   0.0000   0.0000
     0.0000   0.0000   0.0000   0.0000   0.0000   0.0000   0.0000   0.0000
     0.0000   0.0000   0.0000   0.0000   0.0000   0.0000   0.0000   0.0000
     0.0000   0.0000   0.0000   0.0000   0.0000   0.0000   0.0000   0.0000
     0.0000   0.0000   0.0000   0.0000   0.0000   0.0000   0.0000   0.0000
     0.0000   0.0000   0.0000   0.0000   0.0000   0.0000   0.0000   0.0000
     0.0000   0.0000   0.0000   0.0000   0.0000   0.0000

          k = 0.0000 0.3849 0.0968 (  1005 PWs)   bands (ev):

   -11.1736 -10.9876  -1.9629  -1.9055   1.4058   1.4696   1.6123   3.1162
    11.7383  12.5687  13.8269  15.0232  16.5033  19.0421  21.9193  23.8526
    23.9774  24.1405  24.9700  25.9221  27.5841  29.6567  30.5623  31.8569
    34.2643  34.5461  36.1271  36.3345  39.0503  40.1448  42.6893  42.9630
    45.5954  46.9515  47.1985  48.0444  48.3346  49.2246  50.6136  51.5998
    52.4110  54.7753  55.5703  55.5779  58.1401  58.4801  59.0980  59.3470
    62.7142  63.5212  64.6782  64.9636  66.9060  67.0045  68.9117  69.4236
    69.9692  70.2230  70.6995  71.7281  71.9278  73.5335  74.2216  74.6942
    75.7734  77.6040  78.3394  79.5433  80.4319  81.3542

     occupation numbers 
     1.0000   1.0000   1.0000   1.0000   1.0000   1.0000   1.0000   1.0000
     0.0000   0.0000   0.0000   0.0000   0.0000   0.0000   0.0000   0.0000
     0.0000   0.0000   0.0000   0.0000   0.0000   0.0000   0.0000   0.0000
     0.0000   0.0000   0.0000   0.0000   0.0000   0.0000   0.0000   0.0000
     0.0000   0.0000   0.0000   0.0000   0.0000   0.0000   0.0000   0.0000
     0.0000   0.0000   0.0000   0.0000   0.0000   0.0000   0.0000   0.0000
     0.0000   0.0000   0.0000   0.0000   0.0000   0.0000   0.0000   0.0000
     0.0000   0.0000   0.0000   0.0000   0.0000   0.0000   0.0000   0.0000
     0.0000   0.0000   0.0000   0.0000   0.0000   0.0000

          k = 0.0000 0.3849-0.1936 (   998 PWs)   bands (ev):

   -11.0800 -11.0799  -1.9452  -1.9451   1.4695   1.4696   2.3211   2.3211
    12.0578  12.0579  14.8175  14.8175  17.3485  17.3485  23.1028  23.1028
    23.9068  23.9068  25.2147  25.2147  28.7529  28.7530  31.1784  31.1784
    34.4112  34.4112  37.8648  37.8648  39.6915  39.6915  40.7403  40.7403
    46.4541  46.4541  47.2534  47.2534  49.4798  49.4798  50.4842  50.4842
    52.7264  52.7264  57.4844  57.4844  60.3590  60.3590  60.6152  60.6152
    61.6850  61.6850  62.1589  62.1590  65.7674  65.7674  69.9936  69.9936
    70.1534  70.1534  71.6752  71.6752  72.6539  72.6539  74.6229  74.6229
    75.7412  75.7412  79.8301  79.8301  82.3023  82.3023

     occupation numbers 
     1.0000   1.0000   1.0000   1.0000   1.0000   1.0000   1.0000   1.0000
     0.0000   0.0000   0.0000   0.0000   0.0000   0.0000   0.0000   0.0000
     0.0000   0.0000   0.0000   0.0000   0.0000   0.0000   0.0000   0.0000
     0.0000   0.0000   0.0000   0.0000   0.0000   0.0000   0.0000   0.0000
     0.0000   0.0000   0.0000   0.0000   0.0000   0.0000   0.0000   0.0000
     0.0000   0.0000   0.0000   0.0000   0.0000   0.0000   0.0000   0.0000
     0.0000   0.0000   0.0000   0.0000   0.0000   0.0000   0.0000   0.0000
     0.0000   0.0000   0.0000   0.0000   0.0000   0.0000   0.0000   0.0000
     0.0000   0.0000   0.0000   0.0000   0.0000   0.0000

          k = 0.0000 0.4811 0.0000 (  1014 PWs)   bands (ev):

   -10.4030 -10.2221  -3.4307  -3.3135   0.9583   1.0452   2.6751   4.3836
     9.8223  11.4408  13.9446  14.8035  16.7938  19.8219  20.1990  24.4555
    26.0638  26.1922  26.3830  26.5195  26.7234  27.9747  31.6846  32.2583
    33.4160  33.6543  33.8393  36.0261  37.8947  40.7658  41.9897  42.4354
    44.2184  45.9534  49.3909  49.7121  50.1949  50.8754  52.3851  52.8231
    53.8674  54.6453  58.0090  58.7286  58.8101  59.8080  60.0811  61.2170
    62.4499  63.7867  64.3320  65.2773  65.5137  66.1413  66.7556  68.7041
    69.1222  69.6290  71.5697  71.9612  72.8827  74.1624  74.6344  74.8798
    75.0419  75.8908  76.8419  76.8423  78.2400  78.8592

     occupation numbers 
     1.0000   1.0000   1.0000   1.0000   1.0000   1.0000   1.0000   1.0000
     0.0000   0.0000   0.0000   0.0000   0.0000   0.0000   0.0000   0.0000
     0.0000   0.0000   0.0000   0.0000   0.0000   0.0000   0.0000   0.0000
     0.0000   0.0000   0.0000   0.0000   0.0000   0.0000   0.0000   0.0000
     0.0000   0.0000   0.0000   0.0000   0.0000   0.0000   0.0000   0.0000
     0.0000   0.0000   0.0000   0.0000   0.0000   0.0000   0.0000   0.0000
     0.0000   0.0000   0.0000   0.0000   0.0000   0.0000   0.0000   0.0000
     0.0000   0.0000   0.0000   0.0000   0.0000   0.0000   0.0000   0.0000
     0.0000   0.0000   0.0000   0.0000   0.0000   0.0000

          k = 0.0000 0.4811 0.0968 (  1003 PWs)   bands (ev):

   -10.3726 -10.2485  -3.4152  -3.3217   0.9708   1.0556   2.9189   4.1468
     9.9219  11.0700  14.3435  14.8249  17.1288  19.1746  21.1027  23.6811
    25.7530  25.8523  26.1891  26.2561  27.0513  29.2948  29.9761  31.7910
    33.7336  34.0476  35.6482  36.5727  38.6410  40.0621  41.5658  42.6649
    44.3295  44.9630  46.1764  49.2775  50.8733  52.7109  53.1441  53.4305
    54.9277  55.3242  55.7119  56.7516  58.1986  61.1237  61.8051  62.1640
    63.8518  64.3854  64.8208  65.2405  65.7488  66.0618  66.1622  67.4366
    68.6355  69.4684  70.3426  70.4174  71.7075  73.0050  73.7305  73.7438
    76.2978  76.9205  77.8243  79.6757  79.9724  81.4579

     occupation numbers 
     1.0000   1.0000   1.0000   1.0000   1.0000   1.0000   1.0000   1.0000
     0.0000   0.0000   0.0000   0.0000   0.0000   0.0000   0.0000   0.0000
     0.0000   0.0000   0.0000   0.0000   0.0000   0.0000   0.0000   0.0000
     0.0000   0.0000   0.0000   0.0000   0.0000   0.0000   0.0000   0.0000
     0.0000   0.0000   0.0000   0.0000   0.0000   0.0000   0.0000   0.0000
     0.0000   0.0000   0.0000   0.0000   0.0000   0.0000   0.0000   0.0000
     0.0000   0.0000   0.0000   0.0000   0.0000   0.0000   0.0000   0.0000
     0.0000   0.0000   0.0000   0.0000   0.0000   0.0000   0.0000   0.0000
     0.0000   0.0000   0.0000   0.0000   0.0000   0.0000

          k = 0.0000 0.4811-0.1936 (  1004 PWs)   bands (ev):

   -10.3118 -10.3118  -3.3777  -3.3777   1.0248   1.0248   3.5013   3.5014
    10.3727  10.3727  14.7647  14.7648  18.1210  18.1210  22.3617  22.3617
    25.4148  25.4148  26.2202  26.2202  28.2136  28.2136  30.6499  30.6499
    34.0664  34.0664  38.1940  38.1940  38.8512  38.8512  40.8152  40.8153
    44.7643  44.7644  46.8080  46.8080  51.7513  51.7513  53.8251  53.8251
    54.8240  54.8240  57.0466  57.0466  60.0148  60.0148  62.4542  62.4543
    63.6843  63.6843  64.9496  64.9496  66.1705  66.1705  66.9070  66.9070
    68.3792  68.3792  70.4244  70.4244  71.6196  71.6196  74.0298  74.0298
    75.8406  75.8406  79.0628  79.0629  80.5814  80.5814

     occupation numbers 
     1.0000   1.0000   1.0000   1.0000   1.0000   1.0000   1.0000   1.0000
     0.0000   0.0000   0.0000   0.0000   0.0000   0.0000   0.0000   0.0000
     0.0000   0.0000   0.0000   0.0000   0.0000   0.0000   0.0000   0.0000
     0.0000   0.0000   0.0000   0.0000   0.0000   0.0000   0.0000   0.0000
     0.0000   0.0000   0.0000   0.0000   0.0000   0.0000   0.0000   0.0000
     0.0000   0.0000   0.0000   0.0000   0.0000   0.0000   0.0000   0.0000
     0.0000   0.0000   0.0000   0.0000   0.0000   0.0000   0.0000   0.0000
     0.0000   0.0000   0.0000   0.0000   0.0000   0.0000   0.0000   0.0000
     0.0000   0.0000   0.0000   0.0000   0.0000   0.0000

          k = 0.0000-0.5774 0.0000 (  1016 PWs)   bands (ev):

   -10.0023  -9.9128  -3.9951  -3.9156   0.8068   0.9114   3.4274   4.7022
     8.9896  10.7520  14.3363  14.7346  17.5480  18.6504  20.1415  24.2791
    26.3002  26.5764  27.1013  27.1723  27.4692  27.8830  31.4703  32.7091
    33.1151  33.2191  33.5605  35.5644  37.9659  40.0371  41.4241  42.0334
    42.9910  46.3033  49.2467  49.3229  51.0264  51.2803  54.7422  55.2871
    56.1793  58.0327  58.2142  58.2184  59.3968  59.5246  59.8422  61.5762
    61.6584  62.5511  63.1516  63.4765  64.4044  65.1440  65.9356  67.9554
    69.6310  70.1039  71.6719  72.7673  72.7894  73.7648  74.1338  74.5311
    76.8939  76.9691  78.8411  79.4386  79.9137  80.9419

     occupation numbers 
     1.0000   1.0000   1.0000   1.0000   1.0000   1.0000   1.0000   1.0000
     0.0000   0.0000   0.0000   0.0000   0.0000   0.0000   0.0000   0.0000
     0.0000   0.0000   0.0000   0.0000   0.0000   0.0000   0.0000   0.0000
     0.0000   0.0000   0.0000   0.0000   0.0000   0.0000   0.0000   0.0000
     0.0000   0.0000   0.0000   0.0000   0.0000   0.0000   0.0000   0.0000
     0.0000   0.0000   0.0000   0.0000   0.0000   0.0000   0.0000   0.0000
     0.0000   0.0000   0.0000   0.0000   0.0000   0.0000   0.0000   0.0000
     0.0000   0.0000   0.0000   0.0000   0.0000   0.0000   0.0000   0.0000
     0.0000   0.0000   0.0000   0.0000   0.0000   0.0000

          k = 0.0000-0.5774 0.0968 (  1004 PWs)   bands (ev):

    -9.9844  -9.9201  -3.9814  -3.9194   0.8342   0.8891   3.6594   4.5763
     9.0798  10.3229  14.5385  14.7580  18.0157  18.6457  20.6318  23.4850
    25.8977  26.1503  26.5714  27.1809  27.5749  29.3806  29.8298  31.7421
    33.6387  33.7091  35.3966  36.2455  38.8445  39.7856  40.7836  42.4705
    43.1297  45.0229  45.5245  49.9946  52.2058  53.9507  54.5809  55.0838
    56.0077  56.8771  56.9786  58.5333  58.8321  59.9942  60.9465  60.9854
    61.8607  62.2287  64.8835  64.9098  65.4964  65.6654  65.6752  68.5464
    69.2942  69.5166  70.2635  71.1709  71.2088  73.9718  74.1413  74.7556
    77.4276  77.5656  77.7085  78.1621  79.4935  79.9316

     occupation numbers 
     1.0000   1.0000   1.0000   1.0000   1.0000   1.0000   1.0000   1.0000
     0.0000   0.0000   0.0000   0.0000   0.0000   0.0000   0.0000   0.0000
     0.0000   0.0000   0.0000   0.0000   0.0000   0.0000   0.0000   0.0000
     0.0000   0.0000   0.0000   0.0000   0.0000   0.0000   0.0000   0.0000
     0.0000   0.0000   0.0000   0.0000   0.0000   0.0000   0.0000   0.0000
     0.0000   0.0000   0.0000   0.0000   0.0000   0.0000   0.0000   0.0000
     0.0000   0.0000   0.0000   0.0000   0.0000   0.0000   0.0000   0.0000
     0.0000   0.0000   0.0000   0.0000   0.0000   0.0000   0.0000   0.0000
     0.0000   0.0000   0.0000   0.0000   0.0000   0.0000

          k = 0.0000-0.5774-0.1936 (   992 PWs)   bands (ev):

    -9.9512  -9.9511  -3.9502  -3.9501   0.8810   0.8811   4.1492   4.1493
     9.5534   9.5534  14.7542  14.7542  18.6198  18.6198  21.8458  21.8459
    25.5508  25.5509  27.0475  27.0475  28.2530  28.2530  30.6718  30.6718
    33.8276  33.8277  38.0250  38.0250  38.4645  38.4645  41.1213  41.1213
    43.6913  43.6913  46.5921  46.5921  53.7704  53.7704  55.5805  55.5805
    56.0686  56.0686  58.5088  58.5088  59.4810  59.4810  60.5653  60.5653
    62.1316  62.1316  63.2409  63.2409  66.7327  66.7327  68.5733  68.5734
    69.1542  69.1542  72.1779  72.1779  72.8659  72.8659  72.8779  72.8779
    75.8652  75.8652  75.9639  75.9639  77.4752  77.4752

     occupation numbers 
     1.0000   1.0000   1.0000   1.0000   1.0000   1.0000   1.0000   1.0000
     0.0000   0.0000   0.0000   0.0000   0.0000   0.0000   0.0000   0.0000
     0.0000   0.0000   0.0000   0.0000   0.0000   0.0000   0.0000   0.0000
     0.0000   0.0000   0.0000   0.0000   0.0000   0.0000   0.0000   0.0000
     0.0000   0.0000   0.0000   0.0000   0.0000   0.0000   0.0000   0.0000
     0.0000   0.0000   0.0000   0.0000   0.0000   0.0000   0.0000   0.0000
     0.0000   0.0000   0.0000   0.0000   0.0000   0.0000   0.0000   0.0000
     0.0000   0.0000   0.0000   0.0000   0.0000   0.0000   0.0000   0.0000
     0.0000   0.0000   0.0000   0.0000   0.0000   0.0000

          k = 0.0833 0.1443 0.0000 (  1001 PWs)   bands (ev):

   -12.8015 -12.4441  -0.9989   1.5223   2.2385   2.2603   2.9527   2.9989
    10.6831  15.4698  16.3532  16.4777  16.7807  17.5565  18.1863  19.0900
    21.2789  21.3405  28.5026  28.6199  30.5443  30.6158  31.7444  32.5379
    35.1007  35.4900  36.3723  36.6935  36.9320  39.9079  42.6515  43.0880
    44.1678  44.2056  45.3879  45.8973  47.6483  48.7033  48.9641  49.8509
    50.2701  52.2115  52.6061  53.1027  53.3543  55.8311  55.9103  57.2068
    58.5555  59.3918  61.0856  63.5414  64.1745  66.3538  66.3979  69.7683
    72.5114  72.7821  73.1755  75.2035  75.3646  77.1099  78.8524  79.4334
    79.7944  80.2260  81.1628  82.3248  82.9799  83.5200

     occupation numbers 
     1.0000   1.0000   1.0000   1.0000   1.0000   1.0000   1.0000   1.0000
     0.0000   0.0000   0.0000   0.0000   0.0000   0.0000   0.0000   0.0000
     0.0000   0.0000   0.0000   0.0000   0.0000   0.0000   0.0000   0.0000
     0.0000   0.0000   0.0000   0.0000   0.0000   0.0000   0.0000   0.0000
     0.0000   0.0000   0.0000   0.0000   0.0000   0.0000   0.0000   0.0000
     0.0000   0.0000   0.0000   0.0000   0.0000   0.0000   0.0000   0.0000
     0.0000   0.0000   0.0000   0.0000   0.0000   0.0000   0.0000   0.0000
     0.0000   0.0000   0.0000   0.0000   0.0000   0.0000   0.0000   0.0000
     0.0000   0.0000   0.0000   0.0000   0.0000   0.0000

          k = 0.0833 0.1443 0.0968 (  1001 PWs)   bands (ev):

   -12.7521 -12.5006  -0.7021   1.0373   2.2607   2.2901   2.9725   2.9834
    11.4504  14.7984  16.3830  16.4985  16.8949  17.4838  18.1873  18.7059
    21.2708  21.2812  28.0590  29.8540  30.3661  30.9428  31.7533  32.3249
    34.3118  35.4420  35.8511  38.1994  38.3238  40.0048  41.8376  42.2095
    43.2267  44.4175  45.7042  45.7415  46.7073  47.9125  49.0249  49.9096
    49.9736  51.3889  52.1653  52.4620  55.6660  56.4025  57.9485  58.3846
    59.1053  60.1896  61.3909  63.1074  63.2205  64.8641  68.4804  70.0984
    70.2138  71.8062  72.6895  72.7982  73.8396  76.0221  78.9154  80.6809
    81.1028  81.3446  81.6802  81.9524  83.6614  85.3157

     occupation numbers 
     1.0000   1.0000   1.0000   1.0000   1.0000   1.0000   1.0000   1.0000
     0.0000   0.0000   0.0000   0.0000   0.0000   0.0000   0.0000   0.0000
     0.0000   0.0000   0.0000   0.0000   0.0000   0.0000   0.0000   0.0000
     0.0000   0.0000   0.0000   0.0000   0.0000   0.0000   0.0000   0.0000
     0.0000   0.0000   0.0000   0.0000   0.0000   0.0000   0.0000   0.0000
     0.0000   0.0000   0.0000   0.0000   0.0000   0.0000   0.0000   0.0000
     0.0000   0.0000   0.0000   0.0000   0.0000   0.0000   0.0000   0.0000
     0.0000   0.0000   0.0000   0.0000   0.0000   0.0000   0.0000   0.0000
     0.0000   0.0000   0.0000   0.0000   0.0000   0.0000

          k = 0.0833 0.1443-0.1936 (   998 PWs)   bands (ev):

   -12.6294 -12.6293   0.0923   0.0923   2.2829   2.2829   2.9859   2.9860
    13.1803  13.1803  16.4582  16.4582  17.1957  17.1957  18.2914  18.2914
    21.2573  21.2573  28.7307  28.7307  31.2279  31.2280  32.3209  32.3209
    33.9569  33.9570  37.9856  37.9856  39.8314  39.8314  41.7807  41.7807
    42.1745  42.1745  46.1208  46.1208  47.4743  47.4743  48.3626  48.3626
    51.0660  51.0661  51.9626  51.9626  56.9232  56.9232  58.7370  58.7370
    61.3248  61.3248  62.3573  62.3573  64.4125  64.4125  67.3317  67.3317
    68.9961  68.9961  72.7840  72.7841  75.4311  75.4311  79.0723  79.0723
    81.2221  81.2221  82.5909  82.5909  84.5932  84.5932

     occupation numbers 
     1.0000   1.0000   1.0000   1.0000   1.0000   1.0000   1.0000   1.0000
     0.0000   0.0000   0.0000   0.0000   0.0000   0.0000   0.0000   0.0000
     0.0000   0.0000   0.0000   0.0000   0.0000   0.0000   0.0000   0.0000
     0.0000   0.0000   0.0000   0.0000   0.0000   0.0000   0.0000   0.0000
     0.0000   0.0000   0.0000   0.0000   0.0000   0.0000   0.0000   0.0000
     0.0000   0.0000   0.0000   0.0000   0.0000   0.0000   0.0000   0.0000
     0.0000   0.0000   0.0000   0.0000   0.0000   0.0000   0.0000   0.0000
     0.0000   0.0000   0.0000   0.0000   0.0000   0.0000   0.0000   0.0000
     0.0000   0.0000   0.0000   0.0000   0.0000   0.0000

          k = 0.0833 0.2406 0.0000 (   989 PWs)   bands (ev):

   -12.2736 -11.9418  -0.2325   0.6857   0.7715   2.1367   2.1759   2.1828
    11.5248  14.7160  15.1013  16.1295  16.7183  18.5818  19.6783  20.6820
    21.1330  23.0065  26.1388  28.5096  28.8810  30.6365  30.6956  32.8198
    34.1119  35.3265  35.4887  36.1546  38.6858  41.1943  41.5209  45.0266
    45.6961  45.7213  46.5036  47.2196  47.9320  48.8419  49.4315  49.8628
    51.7707  51.8321  52.2682  54.6794  54.8631  56.2093  56.5624  58.0793
    58.4992  60.0345  62.4097  62.6917  67.7183  67.7538  69.6373  70.2258
    70.2745  70.5793  70.8900  73.3140  74.7026  76.1535  77.6679  78.2106
    79.0426  79.5463  80.5308  81.8538  83.3821  83.6035

     occupation numbers 
     1.0000   1.0000   1.0000   1.0000   1.0000   1.0000   1.0000   1.0000
     0.0000   0.0000   0.0000   0.0000   0.0000   0.0000   0.0000   0.0000
     0.0000   0.0000   0.0000   0.0000   0.0000   0.0000   0.0000   0.0000
     0.0000   0.0000   0.0000   0.0000   0.0000   0.0000   0.0000   0.0000
     0.0000   0.0000   0.0000   0.0000   0.0000   0.0000   0.0000   0.0000
     0.0000   0.0000   0.0000   0.0000   0.0000   0.0000   0.0000   0.0000
     0.0000   0.0000   0.0000   0.0000   0.0000   0.0000   0.0000   0.0000
     0.0000   0.0000   0.0000   0.0000   0.0000   0.0000   0.0000   0.0000
     0.0000   0.0000   0.0000   0.0000   0.0000   0.0000

          k = 0.0833 0.2406 0.0968 (  1001 PWs)   bands (ev):

   -12.2288 -11.9970   0.0073   0.7030   0.7330   1.7529   2.1389   2.1839
    12.1663  14.3626  15.3099  16.1451  16.6926  18.0012  19.6586  19.9040
    21.9428  22.8923  25.8947  27.7066  29.6472  30.4120  31.8951  33.1963
    33.4986  34.9969  36.3896  37.1355  38.3911  40.4824  41.6795  43.4313
    44.1666  44.4243  46.2764  47.6649  49.1060  49.4395  49.7254  50.2497
    51.8566  52.2513  52.7608  53.3895  54.8322  56.5260  57.2001  58.6749
    59.9790  61.1526  62.1423  63.5350  64.8957  65.9945  67.8773  69.8511
    70.4239  71.0537  72.2306  73.1673  74.0904  75.8081  76.9544  78.3734
    79.5628  80.2337  81.3955  82.1593  83.1851  83.4104

     occupation numbers 
     1.0000   1.0000   1.0000   1.0000   1.0000   1.0000   1.0000   1.0000
     0.0000   0.0000   0.0000   0.0000   0.0000   0.0000   0.0000   0.0000
     0.0000   0.0000   0.0000   0.0000   0.0000   0.0000   0.0000   0.0000
     0.0000   0.0000   0.0000   0.0000   0.0000   0.0000   0.0000   0.0000
     0.0000   0.0000   0.0000   0.0000   0.0000   0.0000   0.0000   0.0000
     0.0000   0.0000   0.0000   0.0000   0.0000   0.0000   0.0000   0.0000
     0.0000   0.0000   0.0000   0.0000   0.0000   0.0000   0.0000   0.0000
     0.0000   0.0000   0.0000   0.0000   0.0000   0.0000   0.0000   0.0000
     0.0000   0.0000   0.0000   0.0000   0.0000   0.0000

          k = 0.0833 0.2406-0.1936 (  1000 PWs)   bands (ev):

   -12.1158 -12.1158   0.5599   0.5599   0.9705   0.9705   2.1661   2.1661
    13.4491  13.4491  15.9483  15.9483  16.8780  16.8780  19.6646  19.6647
    22.5729  22.5730  26.3952  26.3952  30.4136  30.4136  32.7494  32.7494
    34.3811  34.3811  37.6199  37.6199  39.4124  39.4124  40.8559  40.8559
    43.6751  43.6751  47.6592  47.6592  49.0006  49.0006  50.6018  50.6018
    51.7733  51.7733  52.9932  52.9932  56.0824  56.0824  59.3890  59.3890
    60.3791  60.3791  62.9047  62.9047  66.1162  66.1162  66.8008  66.8008
    70.3126  70.3126  70.9978  70.9978  76.2714  76.2714  78.3046  78.3046
    80.4506  80.4506  82.8796  82.8796  83.5530  83.5530

     occupation numbers 
     1.0000   1.0000   1.0000   1.0000   1.0000   1.0000   1.0000   1.0000
     0.0000   0.0000   0.0000   0.0000   0.0000   0.0000   0.0000   0.0000
     0.0000   0.0000   0.0000   0.0000   0.0000   0.0000   0.0000   0.0000
     0.0000   0.0000   0.0000   0.0000   0.0000   0.0000   0.0000   0.0000
     0.0000   0.0000   0.0000   0.0000   0.0000   0.0000   0.0000   0.0000
     0.0000   0.0000   0.0000   0.0000   0.0000   0.0000   0.0000   0.0000
     0.0000   0.0000   0.0000   0.0000   0.0000   0.0000   0.0000   0.0000
     0.0000   0.0000   0.0000   0.0000   0.0000   0.0000   0.0000   0.0000
     0.0000   0.0000   0.0000   0.0000   0.0000   0.0000

          k = 0.0833 0.3368 0.0000 (   999 PWs)   bands (ev):

   -11.5390 -11.2515  -1.0954  -1.0216   0.8339   1.3607   1.4319   3.0752
    12.6124  12.8244  13.5674  15.7839  16.8085  19.9904  20.0434  21.6893
    23.2464  24.8165  24.9358  27.1966  27.2894  29.2506  30.5485  32.7213
    34.3852  35.1282  35.5844  35.9367  40.2299  40.8877  42.2243  43.2055
    45.4261  46.0294  47.9130  48.0153  48.6539  49.1334  49.8811  51.7515
    52.6731  52.7377  53.8982  55.3520  55.9940  57.3081  58.0812  59.8255
    62.2200  62.6306  64.1647  64.4496  67.1508  67.4176  67.7661  68.0695
    69.3686  71.4332  71.5705  73.3148  73.8501  74.4750  74.8543  76.5033
    76.9972  77.3181  77.8578  80.3993  81.3577  82.2441

     occupation numbers 
     1.0000   1.0000   1.0000   1.0000   1.0000   1.0000   1.0000   1.0000
     0.0000   0.0000   0.0000   0.0000   0.0000   0.0000   0.0000   0.0000
     0.0000   0.0000   0.0000   0.0000   0.0000   0.0000   0.0000   0.0000
     0.0000   0.0000   0.0000   0.0000   0.0000   0.0000   0.0000   0.0000
     0.0000   0.0000   0.0000   0.0000   0.0000   0.0000   0.0000   0.0000
     0.0000   0.0000   0.0000   0.0000   0.0000   0.0000   0.0000   0.0000
     0.0000   0.0000   0.0000   0.0000   0.0000   0.0000   0.0000   0.0000
     0.0000   0.0000   0.0000   0.0000   0.0000   0.0000   0.0000   0.0000
     0.0000   0.0000   0.0000   0.0000   0.0000   0.0000

          k = 0.0833 0.3368 0.0968 (  1001 PWs)   bands (ev):

   -11.4994 -11.2964  -1.0979  -1.0381   1.1041   1.3624   1.4141   2.6999
    12.4756  13.1861  13.9725  15.7678  16.8038  18.6470  20.8712  21.6119
    23.4027  24.4851  24.8285  25.8279  28.4976  29.4444  31.4204  32.7451
    34.2617  35.0413  35.8558  36.7209  39.6263  40.5765  41.6927  42.8301
    44.6911  45.8113  46.5630  48.5878  49.0326  49.6153  50.7294  51.5957
    52.1552  53.3512  54.4162  56.0573  56.6667  57.1034  59.5775  59.8635
    60.4447  61.3438  63.9908  64.6850  66.6031  67.1498  68.6878  69.4307
    69.6769  70.2807  70.8855  72.0199  73.1147  74.9294  75.7901  76.6901
    76.8828  77.7407  79.3057  79.4046  80.4941  82.8499

     occupation numbers 
     1.0000   1.0000   1.0000   1.0000   1.0000   1.0000   1.0000   1.0000
     0.0000   0.0000   0.0000   0.0000   0.0000   0.0000   0.0000   0.0000
     0.0000   0.0000   0.0000   0.0000   0.0000   0.0000   0.0000   0.0000
     0.0000   0.0000   0.0000   0.0000   0.0000   0.0000   0.0000   0.0000
     0.0000   0.0000   0.0000   0.0000   0.0000   0.0000   0.0000   0.0000
     0.0000   0.0000   0.0000   0.0000   0.0000   0.0000   0.0000   0.0000
     0.0000   0.0000   0.0000   0.0000   0.0000   0.0000   0.0000   0.0000
     0.0000   0.0000   0.0000   0.0000   0.0000   0.0000   0.0000   0.0000
     0.0000   0.0000   0.0000   0.0000   0.0000   0.0000

          k = 0.0833 0.3368-0.1936 (  1004 PWs)   bands (ev):

   -11.3994 -11.3994  -1.0739  -1.0739   1.3644   1.3645   1.8588   1.8588
    12.7705  12.7705  15.3514  15.3514  17.1637  17.1637  21.3623  21.3624
    24.0081  24.0081  24.8520  24.8520  29.2883  29.2883  32.4393  32.4393
    34.5750  34.5751  37.3929  37.3929  38.9362  38.9362  41.8490  41.8490
    44.5303  44.5303  48.0243  48.0243  49.3895  49.3896  51.1588  51.1588
    53.0676  53.0676  56.2570  56.2570  57.1050  57.1050  58.5385  58.5385
    61.8693  61.8693  63.8652  63.8652  66.1009  66.1009  69.4886  69.4886
    70.0706  70.0706  71.0380  71.0380  73.4109  73.4109  76.4419  76.4419
    77.9794  77.9794  79.6727  79.6727  81.4163  81.4163

     occupation numbers 
     1.0000   1.0000   1.0000   1.0000   1.0000   1.0000   1.0000   1.0000
     0.0000   0.0000   0.0000   0.0000   0.0000   0.0000   0.0000   0.0000
     0.0000   0.0000   0.0000   0.0000   0.0000   0.0000   0.0000   0.0000
     0.0000   0.0000   0.0000   0.0000   0.0000   0.0000   0.0000   0.0000
     0.0000   0.0000   0.0000   0.0000   0.0000   0.0000   0.0000   0.0000
     0.0000   0.0000   0.0000   0.0000   0.0000   0.0000   0.0000   0.0000
     0.0000   0.0000   0.0000   0.0000   0.0000   0.0000   0.0000   0.0000
     0.0000   0.0000   0.0000   0.0000   0.0000   0.0000   0.0000   0.0000
     0.0000   0.0000   0.0000   0.0000   0.0000   0.0000

          k = 0.0833 0.4330 0.0000 (  1000 PWs)   bands (ev):

   -10.7047 -10.4830  -2.7328  -2.6144   0.7836   0.8734   2.1413   4.0708
    10.7366  12.0483  13.8312  15.5078  16.9398  19.4986  20.3130  23.8625
    24.3488  25.0749  26.3976  26.4258  27.0537  28.1253  30.7087  32.5511
    33.6842  34.9312  35.1490  36.0417  39.0718  41.1467  41.5799  44.1579
    44.2111  46.4675  47.0388  48.1188  50.1740  50.4786  51.1319  52.6569
    54.6177  54.9518  55.3231  56.3690  57.8034  60.2619  61.2206  61.3757
    62.3945  64.0139  64.2324  65.6102  66.1570  66.7654  67.3886  68.5451
    69.2926  69.9918  70.7824  71.7642  71.8806  73.2615  73.5222  73.7584
    75.8481  77.0417  77.7468  78.1760  79.0120  79.9672

     occupation numbers 
     1.0000   1.0000   1.0000   1.0000   1.0000   1.0000   1.0000   1.0000
     0.0000   0.0000   0.0000   0.0000   0.0000   0.0000   0.0000   0.0000
     0.0000   0.0000   0.0000   0.0000   0.0000   0.0000   0.0000   0.0000
     0.0000   0.0000   0.0000   0.0000   0.0000   0.0000   0.0000   0.0000
     0.0000   0.0000   0.0000   0.0000   0.0000   0.0000   0.0000   0.0000
     0.0000   0.0000   0.0000   0.0000   0.0000   0.0000   0.0000   0.0000
     0.0000   0.0000   0.0000   0.0000   0.0000   0.0000   0.0000   0.0000
     0.0000   0.0000   0.0000   0.0000   0.0000   0.0000   0.0000   0.0000
     0.0000   0.0000   0.0000   0.0000   0.0000   0.0000

          k = 0.0833 0.4330 0.0968 (  1001 PWs)   bands (ev):

   -10.6718 -10.5167  -2.7191  -2.6495   0.7861   0.8461   2.4008   3.7712
    10.7909  11.7455  14.4845  15.5117  17.0463  18.8772  21.0312  23.3661
    24.0329  24.7492  25.5226  26.3753  27.8102  28.6384  31.1334  32.4205
    33.6752  34.5006  35.7061  36.7890  39.4627  40.1128  41.8996  42.4506
    45.5229  46.2440  46.8013  48.1681  49.1208  50.8066  51.2062  53.2728
    53.6724  54.3640  57.2335  57.5973  57.9161  58.4767  61.6266  62.5707
    62.7237  63.6144  63.8277  65.3153  65.6059  67.1248  67.3564  68.5218
    68.6266  69.9518  70.7084  71.2038  72.7309  73.0541  73.8181  74.4638
    74.9258  75.8109  78.9499  79.8680  80.1682  80.5561

     occupation numbers 
     1.0000   1.0000   1.0000   1.0000   1.0000   1.0000   1.0000   1.0000
     0.0000   0.0000   0.0000   0.0000   0.0000   0.0000   0.0000   0.0000
     0.0000   0.0000   0.0000   0.0000   0.0000   0.0000   0.0000   0.0000
     0.0000   0.0000   0.0000   0.0000   0.0000   0.0000   0.0000   0.0000
     0.0000   0.0000   0.0000   0.0000   0.0000   0.0000   0.0000   0.0000
     0.0000   0.0000   0.0000   0.0000   0.0000   0.0000   0.0000   0.0000
     0.0000   0.0000   0.0000   0.0000   0.0000   0.0000   0.0000   0.0000
     0.0000   0.0000   0.0000   0.0000   0.0000   0.0000   0.0000   0.0000
     0.0000   0.0000   0.0000   0.0000   0.0000   0.0000

          k = 0.0833 0.4330-0.1936 (  1002 PWs)   bands (ev):

   -10.5959 -10.5959  -2.6829  -2.6829   0.8059   0.8060   3.0476   3.0477
    11.1586  11.1586  15.3360  15.3360  17.7373  17.7373  22.1597  22.1598
    24.1381  24.1381  25.7945  25.7945  28.5795  28.5795  31.8113  31.8113
    34.0717  34.0717  37.2554  37.2554  39.1159  39.1159  41.6919  41.6919
    46.2704  46.2705  47.4227  47.4227  48.8821  48.8821  52.7686  52.7686
    54.7972  54.7972  56.2218  56.2218  60.1441  60.1441  61.0790  61.0790
    63.5149  63.5149  64.8871  64.8871  65.3771  65.3771  67.4848  67.4848
    69.9161  69.9161  70.9303  70.9303  72.8661  72.8661  74.3829  74.3829
    76.3151  76.3151  77.7791  77.7791  80.4189  80.4189

     occupation numbers 
     1.0000   1.0000   1.0000   1.0000   1.0000   1.0000   1.0000   1.0000
     0.0000   0.0000   0.0000   0.0000   0.0000   0.0000   0.0000   0.0000
     0.0000   0.0000   0.0000   0.0000   0.0000   0.0000   0.0000   0.0000
     0.0000   0.0000   0.0000   0.0000   0.0000   0.0000   0.0000   0.0000
     0.0000   0.0000   0.0000   0.0000   0.0000   0.0000   0.0000   0.0000
     0.0000   0.0000   0.0000   0.0000   0.0000   0.0000   0.0000   0.0000
     0.0000   0.0000   0.0000   0.0000   0.0000   0.0000   0.0000   0.0000
     0.0000   0.0000   0.0000   0.0000   0.0000   0.0000   0.0000   0.0000
     0.0000   0.0000   0.0000   0.0000   0.0000   0.0000

          k = 0.0833 0.5292 0.0000 (  1012 PWs)   bands (ev):

   -10.0411  -9.9225  -3.7709  -3.6738   0.4476   0.5336   3.3367   4.7231
     9.2816  10.8720  14.7407  15.3604  17.4175  19.1751  19.2044  24.1600
    25.5861  26.3196  26.5063  27.0038  27.2109  27.8445  30.9451  32.6767
    33.3749  34.0653  34.2353  36.1889  38.7278  39.4837  41.5793  43.0628
    44.6881  45.0883  47.3364  49.9690  51.2425  52.5433  53.2484  54.1015
    55.6968  56.3671  57.6657  57.9041  59.1158  59.4494  60.3656  60.7953
    62.5036  63.8424  63.8470  64.3320  64.7689  66.2016  67.8408  68.3605
    68.8006  69.6815  70.2067  71.1976  72.0476  74.3438  75.0877  75.1205
    75.4955  77.5968  77.7633  78.6469  78.7453  78.8716

     occupation numbers 
     1.0000   1.0000   1.0000   1.0000   1.0000   1.0000   1.0000   1.0000
     0.0000   0.0000   0.0000   0.0000   0.0000   0.0000   0.0000   0.0000
     0.0000   0.0000   0.0000   0.0000   0.0000   0.0000   0.0000   0.0000
     0.0000   0.0000   0.0000   0.0000   0.0000   0.0000   0.0000   0.0000
     0.0000   0.0000   0.0000   0.0000   0.0000   0.0000   0.0000   0.0000
     0.0000   0.0000   0.0000   0.0000   0.0000   0.0000   0.0000   0.0000
     0.0000   0.0000   0.0000   0.0000   0.0000   0.0000   0.0000   0.0000
     0.0000   0.0000   0.0000   0.0000   0.0000   0.0000   0.0000   0.0000
     0.0000   0.0000   0.0000   0.0000   0.0000   0.0000

          k = 0.0833 0.5292 0.0968 (  1004 PWs)   bands (ev):

   -10.0228  -9.9388  -3.7674  -3.6874   0.4801   0.5354   3.5572   4.5542
     9.3650  10.5045  15.0373  15.3850  17.7211  18.6668  20.2655  23.5475
    24.5810  25.3395  26.8901  26.9449  27.6302  28.5120  31.2355  32.3429
    33.3321  33.8216  34.7237  37.1994  38.9931  39.7677  40.8353  42.6907
    44.7853  44.9051  47.4539  49.5612  50.5334  52.1626  53.7069  54.6540
    55.5452  56.0882  56.4620  57.5258  59.6271  59.9477  61.1591  62.2185
    63.1502  63.5325  64.0048  64.3890  65.0123  66.3689  67.6726  68.1890
    68.6684  69.3701  70.0773  71.2214  71.9887  72.2560  74.2423  75.6946
    76.3680  77.0525  78.0503  78.6333  79.2659  80.3379

     occupation numbers 
     1.0000   1.0000   1.0000   1.0000   1.0000   1.0000   1.0000   1.0000
     0.0000   0.0000   0.0000   0.0000   0.0000   0.0000   0.0000   0.0000
     0.0000   0.0000   0.0000   0.0000   0.0000   0.0000   0.0000   0.0000
     0.0000   0.0000   0.0000   0.0000   0.0000   0.0000   0.0000   0.0000
     0.0000   0.0000   0.0000   0.0000   0.0000   0.0000   0.0000   0.0000
     0.0000   0.0000   0.0000   0.0000   0.0000   0.0000   0.0000   0.0000
     0.0000   0.0000   0.0000   0.0000   0.0000   0.0000   0.0000   0.0000
     0.0000   0.0000   0.0000   0.0000   0.0000   0.0000   0.0000   0.0000
     0.0000   0.0000   0.0000   0.0000   0.0000   0.0000

          k = 0.0833 0.5292-0.1936 (  1000 PWs)   bands (ev):

    -9.9804  -9.9804  -3.7255  -3.7255   0.5169   0.5170   4.0603   4.0603
     9.7999   9.7999  15.3545  15.3545  18.3103  18.3103  21.8106  21.8106
    24.4465  24.4465  26.8916  26.8916  28.4013  28.4013  31.7053  31.7053
    33.5835  33.5835  36.5273  36.5273  39.4820  39.4820  41.4019  41.4019
    45.5893  45.5893  47.0286  47.0286  51.5401  51.5401  54.2019  54.2019
    55.3064  55.3064  58.7211  58.7211  59.1519  59.1520  61.2432  61.2432
    62.8362  62.8362  65.5204  65.5204  66.1944  66.1944  67.5020  67.5020
    69.1781  69.1781  70.9806  70.9806  72.6793  72.6793  74.0022  74.0022
    74.5367  74.5367  78.2789  78.2789  80.0941  80.0941

     occupation numbers 
     1.0000   1.0000   1.0000   1.0000   1.0000   1.0000   1.0000   1.0000
     0.0000   0.0000   0.0000   0.0000   0.0000   0.0000   0.0000   0.0000
     0.0000   0.0000   0.0000   0.0000   0.0000   0.0000   0.0000   0.0000
     0.0000   0.0000   0.0000   0.0000   0.0000   0.0000   0.0000   0.0000
     0.0000   0.0000   0.0000   0.0000   0.0000   0.0000   0.0000   0.0000
     0.0000   0.0000   0.0000   0.0000   0.0000   0.0000   0.0000   0.0000
     0.0000   0.0000   0.0000   0.0000   0.0000   0.0000   0.0000   0.0000
     0.0000   0.0000   0.0000   0.0000   0.0000   0.0000   0.0000   0.0000
     0.0000   0.0000   0.0000   0.0000   0.0000   0.0000

          k = 0.1667 0.2887 0.0000 (  1011 PWs)   bands (ev):

   -11.6542 -11.3632  -0.5859  -0.5463   0.6434   1.0541   1.1457   2.9366
    12.5359  13.4074  13.6767  17.0492  17.4863  18.5301  19.7309  20.1340
    23.3149  24.6360  25.0949  26.7484  28.0479  29.2822  30.2957  32.4507
    34.8238  35.6711  36.9307  37.2721  38.4893  40.3995  43.2872  43.4667
    44.2966  44.8438  46.8408  47.1908  48.9125  49.7033  49.9040  51.4031
    52.5437  52.7640  54.2152  55.4193  57.6281  58.0689  59.5253  60.3768
    60.9280  61.1407  61.7586  62.2784  66.9371  66.9909  67.7171  68.8633
    69.5982  70.0090  72.4761  72.6024  72.8775  74.4583  74.9689  77.2311
    78.4802  80.4023  80.9669  81.2873  81.4562  81.6937

     occupation numbers 
     1.0000   1.0000   1.0000   1.0000   1.0000   1.0000   1.0000   1.0000
     0.0000   0.0000   0.0000   0.0000   0.0000   0.0000   0.0000   0.0000
     0.0000   0.0000   0.0000   0.0000   0.0000   0.0000   0.0000   0.0000
     0.0000   0.0000   0.0000   0.0000   0.0000   0.0000   0.0000   0.0000
     0.0000   0.0000   0.0000   0.0000   0.0000   0.0000   0.0000   0.0000
     0.0000   0.0000   0.0000   0.0000   0.0000   0.0000   0.0000   0.0000
     0.0000   0.0000   0.0000   0.0000   0.0000   0.0000   0.0000   0.0000
     0.0000   0.0000   0.0000   0.0000   0.0000   0.0000   0.0000   0.0000
     0.0000   0.0000   0.0000   0.0000   0.0000   0.0000

          k = 0.1667 0.2887 0.0968 (  1000 PWs)   bands (ev):

   -11.6126 -11.4035  -0.5677  -0.5491   0.9287   1.0785   1.1528   2.5554
    12.6845  13.5152  14.1720  17.1257  17.2697  17.9413  19.8527  20.1048
    23.3389  24.4878  24.9559  25.5378  28.8469  29.7538  31.2769  32.9362
    34.7449  35.9399  37.2648  37.6874  37.8148  39.2912  41.2990  43.3132
    44.2715  44.9041  45.8018  48.8380  49.4789  50.5264  50.9767  52.0971
    52.4219  53.0616  54.6931  55.1443  56.1256  56.3505  57.9208  59.4450
    61.9938  62.9583  63.2758  64.0924  64.9238  66.7491  68.1354  68.6296
    69.3684  70.3151  71.2075  71.7440  74.8183  75.1895  75.7388  75.9858
    77.0972  78.7815  79.7941  81.5664  82.7330  83.2723

     occupation numbers 
     1.0000   1.0000   1.0000   1.0000   1.0000   1.0000   1.0000   1.0000
     0.0000   0.0000   0.0000   0.0000   0.0000   0.0000   0.0000   0.0000
     0.0000   0.0000   0.0000   0.0000   0.0000   0.0000   0.0000   0.0000
     0.0000   0.0000   0.0000   0.0000   0.0000   0.0000   0.0000   0.0000
     0.0000   0.0000   0.0000   0.0000   0.0000   0.0000   0.0000   0.0000
     0.0000   0.0000   0.0000   0.0000   0.0000   0.0000   0.0000   0.0000
     0.0000   0.0000   0.0000   0.0000   0.0000   0.0000   0.0000   0.0000
     0.0000   0.0000   0.0000   0.0000   0.0000   0.0000   0.0000   0.0000
     0.0000   0.0000   0.0000   0.0000   0.0000   0.0000

          k = 0.1667 0.2887-0.1936 (  1006 PWs)   bands (ev):

   -11.5111 -11.5110  -0.5802  -0.5802   1.0826   1.0826   1.7120   1.7120
    13.0662  13.0662  15.8904  15.8904  17.3381  17.3382  20.0024  20.0025
    23.9749  23.9749  24.7202  24.7202  29.6018  29.6018  32.8593  32.8593
    35.6719  35.6719  37.2899  37.2899  38.5590  38.5590  40.3315  40.3315
    44.7581  44.7581  47.7123  47.7124  50.8151  50.8151  51.8762  51.8762
    53.7273  53.7273  54.8566  54.8566  55.5240  55.5240  57.0276  57.0276
    62.4408  62.4409  64.7741  64.7741  67.5608  67.5608  68.3910  68.3910
    69.8341  69.8341  70.2972  70.2972  72.0028  72.0028  77.5031  77.5031
    79.1740  79.1740  80.5526  80.5526  81.4242  81.4242

     occupation numbers 
     1.0000   1.0000   1.0000   1.0000   1.0000   1.0000   1.0000   1.0000
     0.0000   0.0000   0.0000   0.0000   0.0000   0.0000   0.0000   0.0000
[...]
     0.0000   0.0000   0.0000   0.0000   0.0000   0.0000   0.0000   0.0000
     0.0000   0.0000   0.0000   0.0000   0.0000   0.0000   0.0000   0.0000
     0.0000   0.0000   0.0000   0.0000   0.0000   0.0000   0.0000   0.0000
     0.0000   0.0000   0.0000   0.0000   0.0000   0.0000   0.0000   0.0000
     0.0000   0.0000   0.0000   0.0000   0.0000   0.0000   0.0000   0.0000
     0.0000   0.0000   0.0000   0.0000   0.0000   0.0000   0.0000   0.0000
     0.0000   0.0000   0.0000   0.0000   0.0000   0.0000   0.0000   0.0000
     0.0000   0.0000   0.0000   0.0000   0.0000   0.0000

          k = 0.1667 0.5774 0.0000 (   996 PWs)   bands (ev):

    -9.7437  -9.6652  -3.6871  -3.5783  -0.5015  -0.4522   3.9340   4.9874
     9.2847  10.5496  16.1466  16.8743  17.2647  17.9174  19.5647  23.2609
    24.6956  25.8182  26.0066  26.3896  27.0946  27.5810  29.6790  32.9578
    33.0429  36.3504  36.5997  36.7884  38.3284  40.4046  41.9952  42.9321
    44.0823  47.3548  47.4175  48.7507  51.0969  51.8772  53.5919  55.0145
    56.0497  56.5199  57.2540  57.4482  57.9009  57.9514  60.2779  61.3502
    62.3933  63.1175  64.4475  64.8780  66.3479  66.9178  66.9194  69.4721
    69.5969  69.7892  70.4110  71.4060  71.6351  72.5360  74.5625  75.1734
    75.9285  76.1734  76.8982  78.4762  79.3264  80.0726

     occupation numbers 
     1.0000   1.0000   1.0000   1.0000   1.0000   1.0000   1.0000   1.0000
     0.0000   0.0000   0.0000   0.0000   0.0000   0.0000   0.0000   0.0000
     0.0000   0.0000   0.0000   0.0000   0.0000   0.0000   0.0000   0.0000
     0.0000   0.0000   0.0000   0.0000   0.0000   0.0000   0.0000   0.0000
     0.0000   0.0000   0.0000   0.0000   0.0000   0.0000   0.0000   0.0000
     0.0000   0.0000   0.0000   0.0000   0.0000   0.0000   0.0000   0.0000
     0.0000   0.0000   0.0000   0.0000   0.0000   0.0000   0.0000   0.0000
     0.0000   0.0000   0.0000   0.0000   0.0000   0.0000   0.0000   0.0000
     0.0000   0.0000   0.0000   0.0000   0.0000   0.0000

          k = 0.1667 0.5774 0.0968 (  1002 PWs)   bands (ev):

    -9.7340  -9.6785  -3.6887  -3.5993  -0.5230  -0.4654   4.1073   4.8810
     9.3107  10.2067  16.4897  16.8776  17.3576  18.0382  20.0540  22.8390
    23.7653  25.0013  26.0108  26.3262  27.7096  27.9111  30.6031  32.8684
    33.1743  35.4552  36.1670  37.3476  37.7730  40.4916  42.5382  42.6104
    46.0664  47.5012  47.5843  48.9948  51.0716  51.8690  52.7843  53.1875
    53.4296  54.9784  55.9138  59.5346  59.6430  60.0431  60.6451  61.6446
    62.5561  63.2292  64.3513  64.5737  66.3836  66.9429  67.3848  68.4614
    68.6151  69.1290  69.9133  73.0161  73.5331  74.1552  74.9302  75.3514
    75.7780  76.5813  77.8351  78.3525  78.6968  78.7735

     occupation numbers 
     1.0000   1.0000   1.0000   1.0000   1.0000   1.0000   1.0000   1.0000
     0.0000   0.0000   0.0000   0.0000   0.0000   0.0000   0.0000   0.0000
     0.0000   0.0000   0.0000   0.0000   0.0000   0.0000   0.0000   0.0000
     0.0000   0.0000   0.0000   0.0000   0.0000   0.0000   0.0000   0.0000
     0.0000   0.0000   0.0000   0.0000   0.0000   0.0000   0.0000   0.0000
     0.0000   0.0000   0.0000   0.0000   0.0000   0.0000   0.0000   0.0000
     0.0000   0.0000   0.0000   0.0000   0.0000   0.0000   0.0000   0.0000
     0.0000   0.0000   0.0000   0.0000   0.0000   0.0000   0.0000   0.0000
     0.0000   0.0000   0.0000   0.0000   0.0000   0.0000

          k = 0.1667 0.5774-0.1936 (  1002 PWs)   bands (ev):

    -9.7075  -9.7074  -3.6431  -3.6431  -0.5068  -0.5068   4.5219   4.5219
     9.6211   9.6211  16.8355  16.8356  17.8156  17.8156  21.4711  21.4711
    23.6756  23.6756  26.2159  26.2159  28.0854  28.0854  32.3903  32.3904
    33.9124  33.9124  35.7708  35.7708  40.0221  40.0221  42.7106  42.7106
    47.7482  47.7482  48.4754  48.4754  51.0529  51.0529  51.2597  51.2597
    55.1338  55.1338  55.5938  55.5938  60.9071  60.9071  61.7166  61.7166
    63.4591  63.4591  65.1966  65.1966  65.6757  65.6757  67.7366  67.7366
    70.3547  70.3547  71.6514  71.6514  72.2332  72.2332  76.0673  76.0673
    76.2510  76.2510  77.3470  77.3470  79.8762  79.8762

     occupation numbers 
     1.0000   1.0000   1.0000   1.0000   1.0000   1.0000   1.0000   1.0000
     0.0000   0.0000   0.0000   0.0000   0.0000   0.0000   0.0000   0.0000
     0.0000   0.0000   0.0000   0.0000   0.0000   0.0000   0.0000   0.0000
     0.0000   0.0000   0.0000   0.0000   0.0000   0.0000   0.0000   0.0000
     0.0000   0.0000   0.0000   0.0000   0.0000   0.0000   0.0000   0.0000
     0.0000   0.0000   0.0000   0.0000   0.0000   0.0000   0.0000   0.0000
     0.0000   0.0000   0.0000   0.0000   0.0000   0.0000   0.0000   0.0000
     0.0000   0.0000   0.0000   0.0000   0.0000   0.0000   0.0000   0.0000
     0.0000   0.0000   0.0000   0.0000   0.0000   0.0000

          k = 0.2500 0.4330 0.0000 (   997 PWs)   bands (ev):

   -10.1473  -9.9745  -2.7159  -2.6540  -0.8984  -0.8316   3.0792   4.7208
    10.4086  11.2862  15.3543  16.8351  18.4609  18.9922  19.8391  21.5612
    23.2385  24.8832  25.1221  26.1264  27.0157  28.7829  29.2172  32.7850
    33.4405  36.0198  39.1390  39.5568  40.2134  40.6309  41.2395  41.9059
    42.2853  45.9350  46.2666  49.3754  50.5673  51.3429  52.7388  52.9493
    54.0845  56.3367  56.3572  56.7940  59.6037  61.6339  61.9403  62.8717
    63.0158  63.4557  64.4532  64.7711  65.1180  65.4542  66.1141  66.3770
    67.3542  68.5751  69.9760  71.6694  71.6948  72.5471  73.5693  75.3869
    75.4762  78.8079  79.0550  79.7189  80.7808  81.1741

     occupation numbers 
     1.0000   1.0000   1.0000   1.0000   1.0000   1.0000   1.0000   1.0000
     0.0000   0.0000   0.0000   0.0000   0.0000   0.0000   0.0000   0.0000
     0.0000   0.0000   0.0000   0.0000   0.0000   0.0000   0.0000   0.0000
     0.0000   0.0000   0.0000   0.0000   0.0000   0.0000   0.0000   0.0000
     0.0000   0.0000   0.0000   0.0000   0.0000   0.0000   0.0000   0.0000
     0.0000   0.0000   0.0000   0.0000   0.0000   0.0000   0.0000   0.0000
     0.0000   0.0000   0.0000   0.0000   0.0000   0.0000   0.0000   0.0000
     0.0000   0.0000   0.0000   0.0000   0.0000   0.0000   0.0000   0.0000
     0.0000   0.0000   0.0000   0.0000   0.0000   0.0000

          k = 0.2500 0.4330 0.0968 (   999 PWs)   bands (ev):

   -10.1214 -10.0010  -2.7154  -2.6727  -0.8995  -0.8430   3.3040   4.4818
    10.4128  11.0523  15.9974  16.9639  18.4303  18.9629  19.9454  21.1361
    22.7980  23.8399  25.1892  26.7830  27.8801  28.1431  30.1599  32.7180
    33.5553  36.5847  37.2299  38.9954  39.2101  40.4033  40.9772  42.7747
    45.5562  45.7508  47.0444  48.6207  50.9643  50.9775  52.8806  53.2350
    53.6655  55.2076  55.7859  56.5401  58.6068  60.1668  61.2681  61.7556
    62.5470  64.0023  64.3499  65.3762  66.1965  66.3142  66.9721  67.9547
    69.3589  69.5398  70.1599  70.2110  73.1329  73.8887  74.8875  75.0964
    76.1264  76.1842  78.2245  79.7572  79.9177  81.2103

     occupation numbers 
     1.0000   1.0000   1.0000   1.0000   1.0000   1.0000   1.0000   1.0000
     0.0000   0.0000   0.0000   0.0000   0.0000   0.0000   0.0000   0.0000
     0.0000   0.0000   0.0000   0.0000   0.0000   0.0000   0.0000   0.0000
     0.0000   0.0000   0.0000   0.0000   0.0000   0.0000   0.0000   0.0000
     0.0000   0.0000   0.0000   0.0000   0.0000   0.0000   0.0000   0.0000
     0.0000   0.0000   0.0000   0.0000   0.0000   0.0000   0.0000   0.0000
     0.0000   0.0000   0.0000   0.0000   0.0000   0.0000   0.0000   0.0000
     0.0000   0.0000   0.0000   0.0000   0.0000   0.0000   0.0000   0.0000
     0.0000   0.0000   0.0000   0.0000   0.0000   0.0000

          k = 0.2500 0.4330-0.1936 (  1004 PWs)   bands (ev):

   -10.0612 -10.0612  -2.7119  -2.7119  -0.8809  -0.8808   3.8838   3.8839
    10.6238  10.6239  16.9600  16.9600  18.5633  18.5633  20.3455  20.3455
    22.7879  22.7879  26.0677  26.0678  28.3128  28.3128  31.8999  31.8999
    34.2952  34.2953  38.2424  38.2424  39.1273  39.1273  42.9413  42.9413
    45.1491  45.1491  49.4956  49.4956  51.2498  51.2498  52.3660  52.3660
    53.9396  53.9396  55.7338  55.7338  57.3971  57.3971  61.6247  61.6247
    63.5457  63.5457  64.6883  64.6883  67.8413  67.8413  68.6247  68.6247
    69.9896  69.9896  71.6147  71.6147  71.9259  71.9260  75.2419  75.2419
    76.5132  76.5132  79.2711  79.2711  79.9260  79.9260

     occupation numbers 
     1.0000   1.0000   1.0000   1.0000   1.0000   1.0000   1.0000   1.0000
     0.0000   0.0000   0.0000   0.0000   0.0000   0.0000   0.0000   0.0000
     0.0000   0.0000   0.0000   0.0000   0.0000   0.0000   0.0000   0.0000
     0.0000   0.0000   0.0000   0.0000   0.0000   0.0000   0.0000   0.0000
     0.0000   0.0000   0.0000   0.0000   0.0000   0.0000   0.0000   0.0000
     0.0000   0.0000   0.0000   0.0000   0.0000   0.0000   0.0000   0.0000
     0.0000   0.0000   0.0000   0.0000   0.0000   0.0000   0.0000   0.0000
     0.0000   0.0000   0.0000   0.0000   0.0000   0.0000   0.0000   0.0000
     0.0000   0.0000   0.0000   0.0000   0.0000   0.0000

          k = 0.2500 0.5292 0.0000 (   997 PWs)   bands (ev):

    -9.5989  -9.5185  -3.2921  -3.1401  -1.4994  -1.4311   4.2139   5.1503
     9.6276  10.3710  15.8769  16.9435  18.5052  18.5855  20.9174  22.3250
    22.9838  24.8034  25.4528  26.0626  26.0695  27.8352  28.7281  33.0663
    33.2053  36.8044  38.6149  39.1767  39.7723  40.3114  41.2887  42.8857
    44.8290  45.7679  48.8453  49.7933  50.3925  50.6258  52.4172  54.7500
    55.2407  55.2896  56.3697  57.7018  58.5420  59.8717  61.2841  62.0930
    62.5038  62.9391  63.2978  64.0507  65.8977  66.2602  67.5947  68.6031
    69.1821  69.1911  69.9735  71.0455  72.4688  74.2076  74.6816  75.1571
    75.6525  77.9030  78.1364  78.8191  79.6523  80.7541

     occupation numbers 
     1.0000   1.0000   1.0000   1.0000   1.0000   1.0000   1.0000   1.0000
     0.0000   0.0000   0.0000   0.0000   0.0000   0.0000   0.0000   0.0000
     0.0000   0.0000   0.0000   0.0000   0.0000   0.0000   0.0000   0.0000
     0.0000   0.0000   0.0000   0.0000   0.0000   0.0000   0.0000   0.0000
     0.0000   0.0000   0.0000   0.0000   0.0000   0.0000   0.0000   0.0000
     0.0000   0.0000   0.0000   0.0000   0.0000   0.0000   0.0000   0.0000
     0.0000   0.0000   0.0000   0.0000   0.0000   0.0000   0.0000   0.0000
     0.0000   0.0000   0.0000   0.0000   0.0000   0.0000   0.0000   0.0000
     0.0000   0.0000   0.0000   0.0000   0.0000   0.0000

          k = 0.2500 0.5292 0.0968 (   998 PWs)   bands (ev):

    -9.5864  -9.5316  -3.2697  -3.1591  -1.4990  -1.4516   4.3711   5.0665
     9.5808  10.1192  16.1639  17.3264  18.2583  18.7393  21.0223  21.8366
    23.2852  24.3790  24.8891  25.5929  27.0583  27.5886  29.6240  33.1198
    33.1519  35.8406  37.6690  38.4686  39.5008  41.4905  42.0734  44.3671
    45.5865  46.1647  48.0785  49.7370  50.4788  51.4256  52.1763  53.1968
    54.0615  54.7926  56.3024  56.6159  58.6278  59.5977  60.9746  61.5738
    62.3763  63.4160  64.3296  65.2620  65.5989  66.1598  66.5909  68.4575
    69.8266  71.3356  72.0005  73.0336  73.4370  73.7501  74.0387  75.4103
    76.0675  76.5843  78.4297  78.8346  80.1795  80.8788

     occupation numbers 
     1.0000   1.0000   1.0000   1.0000   1.0000   1.0000   1.0000   1.0000
     0.0000   0.0000   0.0000   0.0000   0.0000   0.0000   0.0000   0.0000
     0.0000   0.0000   0.0000   0.0000   0.0000   0.0000   0.0000   0.0000
     0.0000   0.0000   0.0000   0.0000   0.0000   0.0000   0.0000   0.0000
     0.0000   0.0000   0.0000   0.0000   0.0000   0.0000   0.0000   0.0000
     0.0000   0.0000   0.0000   0.0000   0.0000   0.0000   0.0000   0.0000
     0.0000   0.0000   0.0000   0.0000   0.0000   0.0000   0.0000   0.0000
     0.0000   0.0000   0.0000   0.0000   0.0000   0.0000   0.0000   0.0000
     0.0000   0.0000   0.0000   0.0000   0.0000   0.0000

          k = 0.2500 0.5292-0.1936 (   996 PWs)   bands (ev):

    -9.5588  -9.5588  -3.2247  -3.2247  -1.4765  -1.4764   4.7690   4.7691
     9.7175   9.7175  16.9216  16.9216  18.6183  18.6183  21.4133  21.4133
    23.3656  23.3656  25.1779  25.1779  27.4772  27.4772  32.0368  32.0368
    33.3100  33.3101  38.4075  38.4075  40.3277  40.3277  44.0206  44.0206
    46.3785  46.3785  49.1816  49.1816  50.6766  50.6767  53.4290  53.4290
    53.7151  53.7151  54.5264  54.5264  58.5081  58.5081  61.6922  61.6923
    62.4999  62.4999  65.6900  65.6900  66.2131  66.2131  68.8182  68.8182
    70.4711  70.4711  72.5087  72.5087  73.8008  73.8008  75.9229  75.9229
    76.8036  76.8036  79.0261  79.0261  80.6785  80.6786

     occupation numbers 
     1.0000   1.0000   1.0000   1.0000   1.0000   1.0000   1.0000   1.0000
     0.0000   0.0000   0.0000   0.0000   0.0000   0.0000   0.0000   0.0000
     0.0000   0.0000   0.0000   0.0000   0.0000   0.0000   0.0000   0.0000
     0.0000   0.0000   0.0000   0.0000   0.0000   0.0000   0.0000   0.0000
     0.0000   0.0000   0.0000   0.0000   0.0000   0.0000   0.0000   0.0000
     0.0000   0.0000   0.0000   0.0000   0.0000   0.0000   0.0000   0.0000
     0.0000   0.0000   0.0000   0.0000   0.0000   0.0000   0.0000   0.0000
     0.0000   0.0000   0.0000   0.0000   0.0000   0.0000   0.0000   0.0000
     0.0000   0.0000   0.0000   0.0000   0.0000   0.0000

          k = 0.3333 0.5774 0.0000 (  1005 PWs)   bands (ev):

    -9.3695  -9.3695  -3.2110  -2.9396  -2.1064  -2.1064   4.9799   4.9800
     9.7891   9.7891  15.1997  18.2625  18.2625  18.8222  21.8080  23.1002
    23.1002  23.1402  25.0786  25.0786  27.0026  27.0026  27.7236  33.3951
    33.4518  37.7279  37.7279  38.8832  40.3354  41.8125  41.8125  44.1901
    44.1902  46.0528  48.6220  48.6220  49.9709  51.9155  53.6518  53.6518
    55.0375  55.0375  56.1862  56.1862  60.8480  61.2046  61.2046  61.6662
    61.6662  62.9848  62.9848  63.0016  65.1732  66.6592  66.7757  67.1939
    67.1939  68.3559  73.6592  73.6593  74.0030  75.1038  75.1038  76.5515
    76.5515  77.3829  77.8326  77.8326  78.8299  81.7319

     occupation numbers 
     1.0000   1.0000   1.0000   1.0000   1.0000   1.0000   1.0000   1.0000
     0.0000   0.0000   0.0000   0.0000   0.0000   0.0000   0.0000   0.0000
     0.0000   0.0000   0.0000   0.0000   0.0000   0.0000   0.0000   0.0000
     0.0000   0.0000   0.0000   0.0000   0.0000   0.0000   0.0000   0.0000
     0.0000   0.0000   0.0000   0.0000   0.0000   0.0000   0.0000   0.0000
     0.0000   0.0000   0.0000   0.0000   0.0000   0.0000   0.0000   0.0000
     0.0000   0.0000   0.0000   0.0000   0.0000   0.0000   0.0000   0.0000
     0.0000   0.0000   0.0000   0.0000   0.0000   0.0000   0.0000   0.0000
     0.0000   0.0000   0.0000   0.0000   0.0000   0.0000

          k = 0.3333 0.5774 0.0968 (   993 PWs)   bands (ev):

    -9.3654  -9.3653  -3.1455  -2.9742  -2.0993  -2.0993   5.0673   5.0674
     9.6334   9.6334  15.5568  17.9548  18.7075  18.7075  22.2981  23.0558
    23.0558  23.0746  24.6290  24.6290  26.9320  26.9320  28.7423  33.3840
    33.4786  35.2291  38.4106  38.4106  41.6082  41.6082  43.5733  44.6784
    44.6784  47.4815  48.0295  48.2420  48.2420  52.8499  52.8499  54.2304
    54.2304  54.4123  56.5347  56.5347  57.6492  59.7605  59.7605  62.6186
    62.9645  63.0263  63.5531  63.5531  64.6512  64.6512  67.4201  67.4201
    72.5778  72.5778  72.5808  72.9584  74.3299  75.5993  75.5993  76.4981
    77.2222  77.2222  77.9898  77.9898  79.2915  81.2913

     occupation numbers 
     1.0000   1.0000   1.0000   1.0000   1.0000   1.0000   1.0000   1.0000
     0.0000   0.0000   0.0000   0.0000   0.0000   0.0000   0.0000   0.0000
     0.0000   0.0000   0.0000   0.0000   0.0000   0.0000   0.0000   0.0000
     0.0000   0.0000   0.0000   0.0000   0.0000   0.0000   0.0000   0.0000
     0.0000   0.0000   0.0000   0.0000   0.0000   0.0000   0.0000   0.0000
     0.0000   0.0000   0.0000   0.0000   0.0000   0.0000   0.0000   0.0000
     0.0000   0.0000   0.0000   0.0000   0.0000   0.0000   0.0000   0.0000
     0.0000   0.0000   0.0000   0.0000   0.0000   0.0000   0.0000   0.0000
     0.0000   0.0000   0.0000   0.0000   0.0000   0.0000

          k = 0.3333 0.5774-0.1936 (  1002 PWs)   bands (ev):

    -9.3694  -9.3693  -3.0646  -3.0646  -2.1126  -2.1126   5.1141   5.1141
     9.4643   9.4643  16.5603  16.5603  19.1860  19.1860  22.8112  22.8113
    22.9553  22.9553  24.1485  24.1485  26.8765  26.8765  31.4472  31.4472
    33.4264  33.4265  39.2011  39.2011  41.1854  41.1854  45.8603  45.8603
    46.1774  46.1774  46.6680  46.6680  51.8414  51.8414  51.9777  51.9777
    54.4876  54.4876  56.9598  56.9598  58.2755  58.2755  58.3999  58.3999
    62.8866  62.8867  64.0601  64.0601  67.4496  67.4496  68.3105  68.3105
    70.3653  70.3653  75.1655  75.1655  75.6629  75.6629  77.7887  77.7887
    78.4926  78.4926  79.4298  79.4298  79.4744  79.4744

     occupation numbers 
     1.0000   1.0000   1.0000   1.0000   1.0000   1.0000   1.0000   1.0000
     0.0000   0.0000   0.0000   0.0000   0.0000   0.0000   0.0000   0.0000
     0.0000   0.0000   0.0000   0.0000   0.0000   0.0000   0.0000   0.0000
     0.0000   0.0000   0.0000   0.0000   0.0000   0.0000   0.0000   0.0000
     0.0000   0.0000   0.0000   0.0000   0.0000   0.0000   0.0000   0.0000
     0.0000   0.0000   0.0000   0.0000   0.0000   0.0000   0.0000   0.0000
     0.0000   0.0000   0.0000   0.0000   0.0000   0.0000   0.0000   0.0000
     0.0000   0.0000   0.0000   0.0000   0.0000   0.0000   0.0000   0.0000
     0.0000   0.0000   0.0000   0.0000   0.0000   0.0000

     highest occupied, lowest unoccupied level (ev):     5.1503    8.9896

     Writing output data file run_output/hBN.save/

     init_run     :      0.42s CPU      0.43s WALL (       1 calls)
     electrons    :     11.77s CPU     12.05s WALL (       1 calls)

     Called by init_run:
     wfcinit      :      0.00s CPU      0.01s WALL (       1 calls)
     wfcinit:atom :      0.00s CPU      0.00s WALL (      57 calls)
     wfcinit:wfcr :      0.55s CPU      0.57s WALL (      57 calls)
     potinit      :      0.04s CPU      0.05s WALL (       1 calls)
     hinit0       :      0.01s CPU      0.02s WALL (       1 calls)

     Called by electrons:
     c_bands      :     11.76s CPU     12.04s WALL (       1 calls)
     v_of_rho     :      0.00s CPU      0.00s WALL (       1 calls)
     v_h          :      0.00s CPU      0.00s WALL (       1 calls)
     v_xc         :      0.00s CPU      0.00s WALL (       1 calls)

     Called by c_bands:
     init_us_2    :      0.00s CPU      0.00s WALL (      57 calls)
     cegterg      :     11.19s CPU     11.45s WALL (      57 calls)

     Called by sum_band:

     Called by *egterg:
     cdiaghg      :      7.86s CPU      7.86s WALL (     817 calls)
     cegterg:over :      0.80s CPU      0.91s WALL (     760 calls)
     cegterg:upda :      0.23s CPU      0.23s WALL (     760 calls)
     cegterg:last :      0.44s CPU      0.44s WALL (     405 calls)
     h_psi        :      2.02s CPU      2.19s WALL (     874 calls)
     g_psi        :      0.00s CPU      0.01s WALL (     760 calls)

     Called by h_psi:
     h_psi:calbec :      0.02s CPU      0.03s WALL (     874 calls)
     vloc_psi     :      1.99s CPU      2.14s WALL (     874 calls)
     add_vuspsi   :      0.01s CPU      0.01s WALL (     874 calls)

     General routines
     calbec       :      0.02s CPU      0.03s WALL (     874 calls)
     fft          :      0.01s CPU      0.01s WALL (       3 calls)
     fftw         :      1.91s CPU      2.06s WALL (   66266 calls)
     davcio       :      0.00s CPU      0.01s WALL (     114 calls)

     Parallel routines
     fft_scatt_xy :      0.06s CPU      0.09s WALL (   66269 calls)
     fft_scatt_yz :      1.14s CPU      1.26s WALL (   66269 calls)

     PWSCF        :     12.99s CPU     14.68s WALL


   This run was terminated on:  17:19: 9  28Apr2021            

=------------------------------------------------------------------------------=
   JOB DONE.
=------------------------------------------------------------------------------=
