
     Program PWSCF v.6.7MaX starts on 29Apr2021 at 15:49: 9 

     This program is part of the open-source Quantum ESPRESSO suite
     for quantum simulation of materials; please cite
         "P. Giannozzi et al., J. Phys.:Condens. Matter 21 395502 (2009);
         "P. Giannozzi et al., J. Phys.:Condens. Matter 29 465901 (2017);
          URL http://www.quantum-espresso.org", 
     in publications or presentations arising from this work. More details at
     http://www.quantum-espresso.org/quote

     Parallel version (MPI), running on    28 processors

     MPI processes distributed on     1 nodes
     R & G space division:  proc/nbgrp/npool/nimage =      28
     Waiting for input...
     Reading input from standard input

     Current dimensions of program PWSCF are:
     Max number of different atomic species (ntypx) = 10
     Max number of k-points (npk) =  40000
     Max angular momentum in pseudopotentials (lmaxx) =  3

     Atomic positions and unit cell read from directory:
     run_output/GaAs.save/
     Atomic positions from file used, from input discarded


     Subspace diagonalization in iterative solution of the eigenvalue problem:
     a serial algorithm will be used

     Message from routine setup:
     using ibrav=0 with symmetry is DISCOURAGED, use correct ibrav instead

     Parallelization info
     --------------------
     sticks:   dense  smooth     PW     G-vecs:    dense   smooth      PW
     Min          38      38     11                  838      838     136
     Max          39      39     12                  843      843     141
     Sum        1069    1069    313                23505    23505    3839



     bravais-lattice index     =            0
     lattice parameter (alat)  =       7.4893  a.u.
     unit-cell volume          =     297.0321 (a.u.)^3
     number of atoms/cell      =            2
     number of atomic types    =            2
     number of electrons       =         8.00
     number of Kohn-Sham states=           70
     kinetic-energy cutoff     =      70.0000  Ry
     charge density cutoff     =     280.0000  Ry
     Exchange-correlation=  SLA  PZ   NOGX NOGC
                           (   1   1   0   0   0   0   0)

     celldm(1)=   7.489269  celldm(2)=   0.000000  celldm(3)=   0.000000
     celldm(4)=   0.000000  celldm(5)=   0.000000  celldm(6)=   0.000000

     crystal axes: (cart. coord. in units of alat)
               a(1) = (   0.000000   0.707107   0.707107 )  
               a(2) = (   0.707107   0.000000   0.707107 )  
               a(3) = (   0.707107   0.707107   0.000000 )  

     reciprocal axes: (cart. coord. in units 2 pi/alat)
               b(1) = ( -0.707107  0.707107  0.707107 )  
               b(2) = (  0.707107 -0.707107  0.707107 )  
               b(3) = (  0.707107  0.707107 -0.707107 )  


     PseudoPot. # 1 for As read from file:
     PPs/As.pz-bhs.UPF
     MD5 check sum: 451cd3365afcfc94d28b1934951c34a8
     Pseudo is Norm-conserving, Zval =  5.0
     Generated by new atomic code, or converted to UPF format
     Using radial grid of  525 points,  2 beta functions with: 
                l(1) =   0
                l(2) =   1

     PseudoPot. # 2 for Ga read from file:
     PPs/Ga_hamlu.fhi.UPF
     MD5 check sum: 4ad1663a8a964d7f0e56f5e6e9567420
     Pseudo is Norm-conserving + core correction, Zval =  3.0
     Generated by new atomic code, or converted to UPF format
     Using radial grid of  529 points,  2 beta functions with: 
                l(1) =   1
                l(2) =   2

     atomic species   valence    mass     pseudopotential
        As             5.00    74.92160     As( 1.00)
        Ga             3.00    69.72300     Ga( 1.00)

     24 Sym. Ops. (no inversion) found


                                    s                        frac. trans.

      isym =  1     identity                                     

 cryst.   s( 1) = (     1          0          0      )
                  (     0          1          0      )
                  (     0          0          1      )

 cart.    s( 1) = (  1.0000000  0.0000000  0.0000000 )
                  (  0.0000000  1.0000000  0.0000000 )
                  (  0.0000000  0.0000000  1.0000000 )


      isym =  2     180 deg rotation - cart. axis [0,0,1]        

 cryst.   s( 2) = (     0          1         -1      )
                  (     1          0         -1      )
                  (     0          0         -1      )

 cart.    s( 2) = ( -1.0000000  0.0000000  0.0000000 )
                  (  0.0000000 -1.0000000  0.0000000 )
                  (  0.0000000  0.0000000  1.0000000 )


      isym =  3     180 deg rotation - cart. axis [0,1,0]        

 cryst.   s( 3) = (     0         -1          1      )
                  (     0         -1          0      )
                  (     1         -1          0      )

 cart.    s( 3) = ( -1.0000000  0.0000000  0.0000000 )
                  (  0.0000000  1.0000000  0.0000000 )
                  (  0.0000000  0.0000000 -1.0000000 )


      isym =  4     180 deg rotation - cart. axis [1,0,0]        

 cryst.   s( 4) = (    -1          0          0      )
                  (    -1          0          1      )
                  (    -1          1          0      )

 cart.    s( 4) = (  1.0000000  0.0000000  0.0000000 )
                  (  0.0000000 -1.0000000  0.0000000 )
                  (  0.0000000  0.0000000 -1.0000000 )


      isym =  5     120 deg rotation - cart. axis [-1,-1,-1]     

 cryst.   s( 5) = (     0          0          1      )
                  (     1          0          0      )
                  (     0          1          0      )

 cart.    s( 5) = (  0.0000000  1.0000000  0.0000000 )
                  (  0.0000000  0.0000000  1.0000000 )
                  (  1.0000000  0.0000000  0.0000000 )


      isym =  6     120 deg rotation - cart. axis [-1,1,1]       

 cryst.   s( 6) = (     1         -1          0      )
                  (     0         -1          1      )
                  (     0         -1          0      )

 cart.    s( 6) = (  0.0000000 -1.0000000  0.0000000 )
                  (  0.0000000  0.0000000  1.0000000 )
                  ( -1.0000000  0.0000000  0.0000000 )


      isym =  7     120 deg rotation - cart. axis [1,1,-1]       

 cryst.   s( 7) = (    -1          1          0      )
                  (    -1          0          0      )
                  (    -1          0          1      )

 cart.    s( 7) = (  0.0000000  1.0000000  0.0000000 )
                  (  0.0000000  0.0000000 -1.0000000 )
                  ( -1.0000000  0.0000000  0.0000000 )


      isym =  8     120 deg rotation - cart. axis [1,-1,1]       

 cryst.   s( 8) = (     0          0         -1      )
                  (     0          1         -1      )
                  (     1          0         -1      )

 cart.    s( 8) = (  0.0000000 -1.0000000  0.0000000 )
                  (  0.0000000  0.0000000 -1.0000000 )
                  (  1.0000000  0.0000000  0.0000000 )


      isym =  9     120 deg rotation - cart. axis [1,1,1]        

 cryst.   s( 9) = (     0          1          0      )
                  (     0          0          1      )
                  (     1          0          0      )

 cart.    s( 9) = (  0.0000000  0.0000000  1.0000000 )
                  (  1.0000000  0.0000000  0.0000000 )
                  (  0.0000000  1.0000000  0.0000000 )


      isym = 10     120 deg rotation - cart. axis [-1,1,-1]      

 cryst.   s(10) = (    -1          0          1      )
                  (    -1          1          0      )
                  (    -1          0          0      )

 cart.    s(10) = (  0.0000000  0.0000000  1.0000000 )
                  ( -1.0000000  0.0000000  0.0000000 )
                  (  0.0000000 -1.0000000  0.0000000 )


      isym = 11     120 deg rotation - cart. axis [1,-1,-1]      

 cryst.   s(11) = (     1          0         -1      )
                  (     0          0         -1      )
                  (     0          1         -1      )

 cart.    s(11) = (  0.0000000  0.0000000 -1.0000000 )
                  ( -1.0000000  0.0000000  0.0000000 )
                  (  0.0000000  1.0000000  0.0000000 )


      isym = 12     120 deg rotation - cart. axis [-1,-1,1]      

 cryst.   s(12) = (     0         -1          0      )
                  (     1         -1          0      )
                  (     0         -1          1      )

 cart.    s(12) = (  0.0000000  0.0000000 -1.0000000 )
                  (  1.0000000  0.0000000  0.0000000 )
                  (  0.0000000 -1.0000000  0.0000000 )


      isym = 13     inv. 180 deg rotation - cart. axis [1,1,0]   

 cryst.   s(13) = (     1          0         -1      )
                  (     0          1         -1      )
                  (     0          0         -1      )

 cart.    s(13) = (  0.0000000 -1.0000000  0.0000000 )
                  ( -1.0000000  0.0000000  0.0000000 )
                  (  0.0000000  0.0000000  1.0000000 )


      isym = 14     inv. 180 deg rotation - cart. axis [1,-1,0]  

 cryst.   s(14) = (     0          1          0      )
                  (     1          0          0      )
                  (     0          0          1      )

 cart.    s(14) = (  0.0000000  1.0000000  0.0000000 )
                  (  1.0000000  0.0000000  0.0000000 )
                  (  0.0000000  0.0000000  1.0000000 )


      isym = 15     inv.  90 deg rotation - cart. axis [0,0,-1]  

 cryst.   s(15) = (     0         -1          0      )
                  (     0         -1          1      )
                  (     1         -1          0      )

 cart.    s(15) = (  0.0000000 -1.0000000  0.0000000 )
                  (  1.0000000  0.0000000  0.0000000 )
                  (  0.0000000  0.0000000 -1.0000000 )


      isym = 16     inv.  90 deg rotation - cart. axis [0,0,1]   

 cryst.   s(16) = (    -1          0          1      )
                  (    -1          0          0      )
                  (    -1          1          0      )

 cart.    s(16) = (  0.0000000  1.0000000  0.0000000 )
                  ( -1.0000000  0.0000000  0.0000000 )
                  (  0.0000000  0.0000000 -1.0000000 )


      isym = 17     inv. 180 deg rotation - cart. axis [1,0,1]   

 cryst.   s(17) = (     1         -1          0      )
                  (     0         -1          0      )
                  (     0         -1          1      )

 cart.    s(17) = (  0.0000000  0.0000000 -1.0000000 )
                  (  0.0000000  1.0000000  0.0000000 )
                  ( -1.0000000  0.0000000  0.0000000 )


      isym = 18     inv. 180 deg rotation - cart. axis [-1,0,1]  

 cryst.   s(18) = (     0          0          1      )
                  (     0          1          0      )
                  (     1          0          0      )

 cart.    s(18) = (  0.0000000  0.0000000  1.0000000 )
                  (  0.0000000  1.0000000  0.0000000 )
                  (  1.0000000  0.0000000  0.0000000 )


      isym = 19     inv.  90 deg rotation - cart. axis [0,1,0]   

 cryst.   s(19) = (     0          0         -1      )
                  (     1          0         -1      )
                  (     0          1         -1      )

 cart.    s(19) = (  0.0000000  0.0000000 -1.0000000 )
                  (  0.0000000 -1.0000000  0.0000000 )
                  (  1.0000000  0.0000000  0.0000000 )


      isym = 20     inv.  90 deg rotation - cart. axis [0,-1,0]  

 cryst.   s(20) = (    -1          1          0      )
                  (    -1          0          1      )
                  (    -1          0          0      )

 cart.    s(20) = (  0.0000000  0.0000000  1.0000000 )
                  (  0.0000000 -1.0000000  0.0000000 )
                  ( -1.0000000  0.0000000  0.0000000 )


      isym = 21     inv. 180 deg rotation - cart. axis [0,1,1]   

 cryst.   s(21) = (    -1          0          0      )
                  (    -1          1          0      )
                  (    -1          0          1      )

 cart.    s(21) = (  1.0000000  0.0000000  0.0000000 )
                  (  0.0000000  0.0000000 -1.0000000 )
                  (  0.0000000 -1.0000000  0.0000000 )


      isym = 22     inv. 180 deg rotation - cart. axis [0,1,-1]  

 cryst.   s(22) = (     1          0          0      )
                  (     0          0          1      )
                  (     0          1          0      )

 cart.    s(22) = (  1.0000000  0.0000000  0.0000000 )
                  (  0.0000000  0.0000000  1.0000000 )
                  (  0.0000000  1.0000000  0.0000000 )


      isym = 23     inv.  90 deg rotation - cart. axis [-1,0,0]  

 cryst.   s(23) = (     0          1         -1      )
                  (     0          0         -1      )
                  (     1          0         -1      )

 cart.    s(23) = ( -1.0000000  0.0000000  0.0000000 )
                  (  0.0000000  0.0000000 -1.0000000 )
                  (  0.0000000  1.0000000  0.0000000 )


      isym = 24     inv.  90 deg rotation - cart. axis [1,0,0]   

 cryst.   s(24) = (     0         -1          1      )
                  (     1         -1          0      )
                  (     0         -1          0      )

 cart.    s(24) = ( -1.0000000  0.0000000  0.0000000 )
                  (  0.0000000  0.0000000  1.0000000 )
                  (  0.0000000 -1.0000000  0.0000000 )


   Cartesian axes

     site n.     atom                  positions (alat units)
         1           Ga  tau(   1) = (   0.0000000   0.0000000   0.0000000  )
         2           As  tau(   2) = (   0.3535534   1.0606602   1.0606602  )

   Crystallographic axes

     site n.     atom                  positions (cryst. coord.)
         1           Ga  tau(   1) = (  0.0000000  0.0000000  0.0000000  )
         2           As  tau(   2) = (  1.2500000  0.2500000  0.2500000  )

     number of k points=   256
                       cart. coord. in units 2pi/alat
        k(    1) = (   0.0000000   0.0000000   0.0000000), wk =   0.0002500
        k(    2) = (   0.0353553   0.0353553  -0.0353553), wk =   0.0020000
        k(    3) = (   0.0707107   0.0707107  -0.0707107), wk =   0.0020000
        k(    4) = (   0.1060660   0.1060660  -0.1060660), wk =   0.0020000
        k(    5) = (   0.1414214   0.1414214  -0.1414214), wk =   0.0020000
        k(    6) = (   0.1767767   0.1767767  -0.1767767), wk =   0.0020000
        k(    7) = (   0.2121320   0.2121320  -0.2121320), wk =   0.0020000
        k(    8) = (   0.2474874   0.2474874  -0.2474874), wk =   0.0020000
        k(    9) = (   0.2828427   0.2828427  -0.2828427), wk =   0.0020000
        k(   10) = (   0.3181981   0.3181981  -0.3181981), wk =   0.0020000
        k(   11) = (  -0.3535534  -0.3535534   0.3535534), wk =   0.0010000
        k(   12) = (   0.0707107   0.0000000   0.0000000), wk =   0.0015000
        k(   13) = (   0.1060660   0.0353553  -0.0353553), wk =   0.0060000
        k(   14) = (   0.1414214   0.0707107  -0.0707107), wk =   0.0060000
        k(   15) = (   0.1767767   0.1060660  -0.1060660), wk =   0.0060000
        k(   16) = (   0.2121320   0.1414214  -0.1414214), wk =   0.0060000
        k(   17) = (   0.2474874   0.1767767  -0.1767767), wk =   0.0060000
        k(   18) = (   0.2828427   0.2121320  -0.2121320), wk =   0.0060000
        k(   19) = (   0.3181981   0.2474874  -0.2474874), wk =   0.0060000
        k(   20) = (   0.3535534   0.2828427  -0.2828427), wk =   0.0060000
        k(   21) = (  -0.3181981  -0.3889087   0.3889087), wk =   0.0060000
        k(   22) = (  -0.2828427  -0.3535534   0.3535534), wk =   0.0060000
        k(   23) = (  -0.2474874  -0.3181981   0.3181981), wk =   0.0060000
        k(   24) = (  -0.2121320  -0.2828427   0.2828427), wk =   0.0060000
        k(   25) = (  -0.1767767  -0.2474874   0.2474874), wk =   0.0060000
        k(   26) = (  -0.1414214  -0.2121320   0.2121320), wk =   0.0060000
        k(   27) = (  -0.1060660  -0.1767767   0.1767767), wk =   0.0060000
        k(   28) = (  -0.0707107  -0.1414214   0.1414214), wk =   0.0060000
        k(   29) = (  -0.0353553  -0.1060660   0.1060660), wk =   0.0060000
        k(   30) = (  -0.0000000  -0.0707107   0.0707107), wk =   0.0030000
        k(   31) = (   0.1414214   0.0000000   0.0000000), wk =   0.0015000
        k(   32) = (   0.1767767   0.0353553  -0.0353553), wk =   0.0060000
        k(   33) = (   0.2121320   0.0707107  -0.0707107), wk =   0.0060000
        k(   34) = (   0.2474874   0.1060660  -0.1060660), wk =   0.0060000
        k(   35) = (   0.2828427   0.1414214  -0.1414214), wk =   0.0060000
        k(   36) = (   0.3181981   0.1767767  -0.1767767), wk =   0.0060000
        k(   37) = (   0.3535534   0.2121320  -0.2121320), wk =   0.0060000
        k(   38) = (   0.3889087   0.2474874  -0.2474874), wk =   0.0060000
        k(   39) = (  -0.2828427  -0.4242641   0.4242641), wk =   0.0060000
        k(   40) = (  -0.2474874  -0.3889087   0.3889087), wk =   0.0060000
        k(   41) = (  -0.2121320  -0.3535534   0.3535534), wk =   0.0060000
        k(   42) = (  -0.1767767  -0.3181981   0.3181981), wk =   0.0060000
        k(   43) = (  -0.1414214  -0.2828427   0.2828427), wk =   0.0060000
        k(   44) = (  -0.1060660  -0.2474874   0.2474874), wk =   0.0060000
        k(   45) = (  -0.0707107  -0.2121320   0.2121320), wk =   0.0060000
        k(   46) = (  -0.0353553  -0.1767767   0.1767767), wk =   0.0060000
        k(   47) = (   0.0000000  -0.1414214   0.1414214), wk =   0.0030000
        k(   48) = (   0.2121320   0.0000000   0.0000000), wk =   0.0015000
        k(   49) = (   0.2474874   0.0353553  -0.0353553), wk =   0.0060000
        k(   50) = (   0.2828427   0.0707107  -0.0707107), wk =   0.0060000
        k(   51) = (   0.3181981   0.1060660  -0.1060660), wk =   0.0060000
        k(   52) = (   0.3535534   0.1414214  -0.1414214), wk =   0.0060000
        k(   53) = (   0.3889087   0.1767767  -0.1767767), wk =   0.0060000
        k(   54) = (   0.4242641   0.2121320  -0.2121320), wk =   0.0060000
        k(   55) = (  -0.2474874  -0.4596194   0.4596194), wk =   0.0060000
        k(   56) = (  -0.2121320  -0.4242641   0.4242641), wk =   0.0060000
        k(   57) = (  -0.1767767  -0.3889087   0.3889087), wk =   0.0060000
        k(   58) = (  -0.1414214  -0.3535534   0.3535534), wk =   0.0060000
        k(   59) = (  -0.1060660  -0.3181981   0.3181981), wk =   0.0060000
        k(   60) = (  -0.0707107  -0.2828427   0.2828427), wk =   0.0060000
        k(   61) = (  -0.0353553  -0.2474874   0.2474874), wk =   0.0060000
        k(   62) = (  -0.0000000  -0.2121320   0.2121320), wk =   0.0030000
        k(   63) = (   0.2828427   0.0000000   0.0000000), wk =   0.0015000
        k(   64) = (   0.3181981   0.0353553  -0.0353553), wk =   0.0060000
        k(   65) = (   0.3535534   0.0707107  -0.0707107), wk =   0.0060000
        k(   66) = (   0.3889087   0.1060660  -0.1060660), wk =   0.0060000
        k(   67) = (   0.4242641   0.1414214  -0.1414214), wk =   0.0060000
        k(   68) = (   0.4596194   0.1767767  -0.1767767), wk =   0.0060000
        k(   69) = (  -0.2121320  -0.4949747   0.4949747), wk =   0.0060000
        k(   70) = (  -0.1767767  -0.4596194   0.4596194), wk =   0.0060000
        k(   71) = (  -0.1414214  -0.4242641   0.4242641), wk =   0.0060000
        k(   72) = (  -0.1060660  -0.3889087   0.3889087), wk =   0.0060000
        k(   73) = (  -0.0707107  -0.3535534   0.3535534), wk =   0.0060000
        k(   74) = (  -0.0353553  -0.3181981   0.3181981), wk =   0.0060000
        k(   75) = (   0.0000000  -0.2828427   0.2828427), wk =   0.0030000
        k(   76) = (   0.3535534   0.0000000   0.0000000), wk =   0.0015000
        k(   77) = (   0.3889087   0.0353553  -0.0353553), wk =   0.0060000
        k(   78) = (   0.4242641   0.0707107  -0.0707107), wk =   0.0060000
        k(   79) = (   0.4596194   0.1060660  -0.1060660), wk =   0.0060000
        k(   80) = (   0.4949747   0.1414214  -0.1414214), wk =   0.0060000
        k(   81) = (  -0.1767767  -0.5303301   0.5303301), wk =   0.0060000
        k(   82) = (  -0.1414214  -0.4949747   0.4949747), wk =   0.0060000
        k(   83) = (  -0.1060660  -0.4596194   0.4596194), wk =   0.0060000
        k(   84) = (  -0.0707107  -0.4242641   0.4242641), wk =   0.0060000
        k(   85) = (  -0.0353553  -0.3889087   0.3889087), wk =   0.0060000
        k(   86) = (   0.0000000  -0.3535534   0.3535534), wk =   0.0030000
        k(   87) = (   0.4242641   0.0000000   0.0000000), wk =   0.0015000
        k(   88) = (   0.4596194   0.0353553  -0.0353553), wk =   0.0060000
        k(   89) = (   0.4949747   0.0707107  -0.0707107), wk =   0.0060000
        k(   90) = (   0.5303301   0.1060660  -0.1060660), wk =   0.0060000
        k(   91) = (  -0.1414214  -0.5656854   0.5656854), wk =   0.0060000
        k(   92) = (  -0.1060660  -0.5303301   0.5303301), wk =   0.0060000
        k(   93) = (  -0.0707107  -0.4949747   0.4949747), wk =   0.0060000
        k(   94) = (  -0.0353553  -0.4596194   0.4596194), wk =   0.0060000
        k(   95) = (  -0.0000000  -0.4242641   0.4242641), wk =   0.0030000
        k(   96) = (   0.4949747   0.0000000   0.0000000), wk =   0.0015000
        k(   97) = (   0.5303301   0.0353553  -0.0353553), wk =   0.0060000
        k(   98) = (   0.5656854   0.0707107  -0.0707107), wk =   0.0060000
        k(   99) = (  -0.1060660  -0.6010408   0.6010408), wk =   0.0060000
        k(  100) = (  -0.0707107  -0.5656854   0.5656854), wk =   0.0060000
        k(  101) = (  -0.0353553  -0.5303301   0.5303301), wk =   0.0060000
        k(  102) = (   0.0000000  -0.4949747   0.4949747), wk =   0.0030000
        k(  103) = (   0.5656854   0.0000000   0.0000000), wk =   0.0015000
        k(  104) = (   0.6010408   0.0353553  -0.0353553), wk =   0.0060000
        k(  105) = (  -0.0707107  -0.6363961   0.6363961), wk =   0.0060000
        k(  106) = (  -0.0353553  -0.6010408   0.6010408), wk =   0.0060000
        k(  107) = (   0.0000000  -0.5656854   0.5656854), wk =   0.0030000
        k(  108) = (   0.6363961   0.0000000   0.0000000), wk =   0.0015000
        k(  109) = (  -0.0353553  -0.6717514   0.6717514), wk =   0.0060000
        k(  110) = (   0.0000000  -0.6363961   0.6363961), wk =   0.0030000
        k(  111) = (  -0.7071068   0.0000000   0.0000000), wk =   0.0007500
        k(  112) = (   0.1414214   0.0707107   0.0000000), wk =   0.0060000
        k(  113) = (   0.1767767   0.1060660  -0.0353553), wk =   0.0120000
        k(  114) = (   0.2121320   0.1414214  -0.0707107), wk =   0.0120000
        k(  115) = (   0.2474874   0.1767767  -0.1060660), wk =   0.0120000
        k(  116) = (   0.2828427   0.2121320  -0.1414214), wk =   0.0120000
        k(  117) = (   0.3181981   0.2474874  -0.1767767), wk =   0.0120000
        k(  118) = (   0.3535534   0.2828427  -0.2121320), wk =   0.0120000
        k(  119) = (  -0.3181981  -0.3889087   0.4596194), wk =   0.0120000
        k(  120) = (  -0.2828427  -0.3535534   0.4242641), wk =   0.0060000
        k(  121) = (   0.2121320   0.0707107  -0.0000000), wk =   0.0060000
        k(  122) = (   0.2474874   0.1060660  -0.0353553), wk =   0.0120000
        k(  123) = (   0.2828427   0.1414214  -0.0707107), wk =   0.0120000
        k(  124) = (   0.3181981   0.1767767  -0.1060660), wk =   0.0120000
        k(  125) = (   0.3535534   0.2121320  -0.1414214), wk =   0.0120000
        k(  126) = (   0.3889087   0.2474874  -0.1767767), wk =   0.0120000
        k(  127) = (  -0.2828427  -0.4242641   0.4949747), wk =   0.0120000
        k(  128) = (  -0.2474874  -0.3889087   0.4596194), wk =   0.0120000
        k(  129) = (  -0.2121320  -0.3535534   0.4242641), wk =   0.0120000
        k(  130) = (  -0.1767767  -0.3181981   0.3889087), wk =   0.0120000
        k(  131) = (  -0.1414214  -0.2828427   0.3535534), wk =   0.0120000
        k(  132) = (  -0.1060660  -0.2474874   0.3181981), wk =   0.0120000
        k(  133) = (  -0.0707107  -0.2121320   0.2828427), wk =   0.0120000
        k(  134) = (  -0.0353553  -0.1767767   0.2474874), wk =   0.0120000
        k(  135) = (   0.0000000  -0.1414214   0.2121320), wk =   0.0060000
        k(  136) = (   0.2828427   0.0707107   0.0000000), wk =   0.0060000
        k(  137) = (   0.3181981   0.1060660  -0.0353553), wk =   0.0120000
        k(  138) = (   0.3535534   0.1414214  -0.0707107), wk =   0.0120000
        k(  139) = (   0.3889087   0.1767767  -0.1060660), wk =   0.0120000
        k(  140) = (   0.4242641   0.2121320  -0.1414214), wk =   0.0120000
        k(  141) = (  -0.2474874  -0.4596194   0.5303301), wk =   0.0120000
        k(  142) = (  -0.2121320  -0.4242641   0.4949747), wk =   0.0120000
        k(  143) = (  -0.1767767  -0.3889087   0.4596194), wk =   0.0120000
        k(  144) = (  -0.1414214  -0.3535534   0.4242641), wk =   0.0120000
        k(  145) = (  -0.1060660  -0.3181981   0.3889087), wk =   0.0120000
        k(  146) = (  -0.0707107  -0.2828427   0.3535534), wk =   0.0120000
        k(  147) = (  -0.0353553  -0.2474874   0.3181981), wk =   0.0120000
        k(  148) = (  -0.0000000  -0.2121320   0.2828427), wk =   0.0060000
        k(  149) = (   0.3535534   0.0707107   0.0000000), wk =   0.0060000
        k(  150) = (   0.3889087   0.1060660  -0.0353553), wk =   0.0120000
        k(  151) = (   0.4242641   0.1414214  -0.0707107), wk =   0.0120000
        k(  152) = (   0.4596194   0.1767767  -0.1060660), wk =   0.0120000
        k(  153) = (  -0.2121320  -0.4949747   0.5656854), wk =   0.0120000
        k(  154) = (  -0.1767767  -0.4596194   0.5303301), wk =   0.0120000
        k(  155) = (  -0.1414214  -0.4242641   0.4949747), wk =   0.0120000
        k(  156) = (  -0.1060660  -0.3889087   0.4596194), wk =   0.0120000
        k(  157) = (  -0.0707107  -0.3535534   0.4242641), wk =   0.0120000
        k(  158) = (  -0.0353553  -0.3181981   0.3889087), wk =   0.0120000
        k(  159) = (   0.0000000  -0.2828427   0.3535534), wk =   0.0060000
        k(  160) = (   0.4242641   0.0707107   0.0000000), wk =   0.0060000
        k(  161) = (   0.4596194   0.1060660  -0.0353553), wk =   0.0120000
        k(  162) = (   0.4949747   0.1414214  -0.0707107), wk =   0.0120000
        k(  163) = (  -0.1767767  -0.5303301   0.6010408), wk =   0.0120000
        k(  164) = (  -0.1414214  -0.4949747   0.5656854), wk =   0.0120000
        k(  165) = (  -0.1060660  -0.4596194   0.5303301), wk =   0.0120000
        k(  166) = (  -0.0707107  -0.4242641   0.4949747), wk =   0.0120000
        k(  167) = (  -0.0353553  -0.3889087   0.4596194), wk =   0.0120000
        k(  168) = (  -0.0000000  -0.3535534   0.4242641), wk =   0.0060000
        k(  169) = (   0.4949747   0.0707107  -0.0000000), wk =   0.0060000
        k(  170) = (   0.5303301   0.1060660  -0.0353553), wk =   0.0120000
        k(  171) = (  -0.1414214  -0.5656854   0.6363961), wk =   0.0120000
        k(  172) = (  -0.1060660  -0.5303301   0.6010408), wk =   0.0120000
        k(  173) = (  -0.0707107  -0.4949747   0.5656854), wk =   0.0120000
        k(  174) = (  -0.0353553  -0.4596194   0.5303301), wk =   0.0120000
        k(  175) = (  -0.0000000  -0.4242641   0.4949747), wk =   0.0060000
        k(  176) = (   0.5656854   0.0707107   0.0000000), wk =   0.0060000
        k(  177) = (  -0.1060660  -0.6010408   0.6717514), wk =   0.0120000
        k(  178) = (  -0.0707107  -0.5656854   0.6363961), wk =   0.0120000
        k(  179) = (  -0.0353553  -0.5303301   0.6010408), wk =   0.0120000
        k(  180) = (   0.0000000  -0.4949747   0.5656854), wk =   0.0060000
        k(  181) = (  -0.0707107  -0.6363961   0.7071068), wk =   0.0060000
        k(  182) = (  -0.0353553  -0.6010408   0.6717514), wk =   0.0120000
        k(  183) = (  -0.0000000  -0.5656854   0.6363961), wk =   0.0060000
        k(  184) = (  -0.7071068   0.0707107   0.0000000), wk =   0.0030000
        k(  185) = (   0.2828427   0.1414214   0.0000000), wk =   0.0060000
        k(  186) = (   0.3181981   0.1767767  -0.0353553), wk =   0.0120000
        k(  187) = (   0.3535534   0.2121320  -0.0707107), wk =   0.0120000
        k(  188) = (   0.3889087   0.2474874  -0.1060660), wk =   0.0120000
        k(  189) = (  -0.2828427  -0.4242641   0.5656854), wk =   0.0120000
        k(  190) = (  -0.2474874  -0.3889087   0.5303301), wk =   0.0120000
        k(  191) = (  -0.2121320  -0.3535534   0.4949747), wk =   0.0060000
        k(  192) = (   0.3535534   0.1414214   0.0000000), wk =   0.0060000
        k(  193) = (   0.3889087   0.1767767  -0.0353553), wk =   0.0120000
        k(  194) = (   0.4242641   0.2121320  -0.0707107), wk =   0.0120000
        k(  195) = (  -0.2474874  -0.4596194   0.6010408), wk =   0.0120000
        k(  196) = (  -0.2121320  -0.4242641   0.5656854), wk =   0.0120000
        k(  197) = (  -0.1767767  -0.3889087   0.5303301), wk =   0.0120000
        k(  198) = (  -0.1414214  -0.3535534   0.4949747), wk =   0.0120000
        k(  199) = (  -0.1060660  -0.3181981   0.4596194), wk =   0.0120000
        k(  200) = (  -0.0707107  -0.2828427   0.4242641), wk =   0.0120000
        k(  201) = (  -0.0353553  -0.2474874   0.3889087), wk =   0.0120000
        k(  202) = (  -0.0000000  -0.2121320   0.3535534), wk =   0.0060000
        k(  203) = (   0.4242641   0.1414214  -0.0000000), wk =   0.0060000
        k(  204) = (   0.4596194   0.1767767  -0.0353553), wk =   0.0120000
        k(  205) = (  -0.2121320  -0.4949747   0.6363961), wk =   0.0120000
        k(  206) = (  -0.1767767  -0.4596194   0.6010408), wk =   0.0120000
        k(  207) = (  -0.1414214  -0.4242641   0.5656854), wk =   0.0120000
        k(  208) = (  -0.1060660  -0.3889087   0.5303301), wk =   0.0120000
        k(  209) = (  -0.0707107  -0.3535534   0.4949747), wk =   0.0120000
        k(  210) = (  -0.0353553  -0.3181981   0.4596194), wk =   0.0120000
        k(  211) = (   0.0000000  -0.2828427   0.4242641), wk =   0.0060000
        k(  212) = (   0.4949747   0.1414214   0.0000000), wk =   0.0060000
        k(  213) = (  -0.1767767  -0.5303301   0.6717514), wk =   0.0120000
        k(  214) = (  -0.1414214  -0.4949747   0.6363961), wk =   0.0120000
        k(  215) = (  -0.1060660  -0.4596194   0.6010408), wk =   0.0120000
        k(  216) = (  -0.0707107  -0.4242641   0.5656854), wk =   0.0120000
        k(  217) = (  -0.0353553  -0.3889087   0.5303301), wk =   0.0120000
        k(  218) = (   0.0000000  -0.3535534   0.4949747), wk =   0.0060000
        k(  219) = (  -0.1414214  -0.5656854   0.7071068), wk =   0.0060000
        k(  220) = (  -0.1060660  -0.5303301   0.6717514), wk =   0.0120000
        k(  221) = (  -0.0707107  -0.4949747   0.6363961), wk =   0.0120000
        k(  222) = (  -0.0353553  -0.4596194   0.6010408), wk =   0.0120000
        k(  223) = (  -0.0000000  -0.4242641   0.5656854), wk =   0.0060000
        k(  224) = (  -0.0707107  -0.5656854   0.7071068), wk =   0.0060000
        k(  225) = (  -0.0353553  -0.5303301   0.6717514), wk =   0.0120000
        k(  226) = (  -0.0000000  -0.4949747   0.6363961), wk =   0.0060000
        k(  227) = (  -0.7071068   0.1414214   0.0000000), wk =   0.0030000
        k(  228) = (   0.4242641   0.2121320   0.0000000), wk =   0.0060000
        k(  229) = (  -0.2474874  -0.4596194   0.6717514), wk =   0.0120000
        k(  230) = (  -0.2121320  -0.4242641   0.6363961), wk =   0.0120000
        k(  231) = (  -0.1767767  -0.3889087   0.6010408), wk =   0.0120000
        k(  232) = (  -0.1414214  -0.3535534   0.5656854), wk =   0.0060000
        k(  233) = (  -0.2121320  -0.4949747   0.7071068), wk =   0.0060000
        k(  234) = (  -0.1767767  -0.4596194   0.6717514), wk =   0.0120000
        k(  235) = (  -0.1414214  -0.4242641   0.6363961), wk =   0.0120000
        k(  236) = (  -0.1060660  -0.3889087   0.6010408), wk =   0.0120000
        k(  237) = (  -0.0707107  -0.3535534   0.5656854), wk =   0.0120000
        k(  238) = (  -0.0353553  -0.3181981   0.5303301), wk =   0.0120000
        k(  239) = (   0.0000000  -0.2828427   0.4949747), wk =   0.0060000
        k(  240) = (  -0.1414214  -0.4949747   0.7071068), wk =   0.0060000
        k(  241) = (  -0.1060660  -0.4596194   0.6717514), wk =   0.0120000
        k(  242) = (  -0.0707107  -0.4242641   0.6363961), wk =   0.0120000
        k(  243) = (  -0.0353553  -0.3889087   0.6010408), wk =   0.0120000
        k(  244) = (   0.0000000  -0.3535534   0.5656854), wk =   0.0060000
        k(  245) = (  -0.0707107  -0.4949747   0.7071068), wk =   0.0060000
        k(  246) = (  -0.0353553  -0.4596194   0.6717514), wk =   0.0120000
        k(  247) = (  -0.0000000  -0.4242641   0.6363961), wk =   0.0060000
        k(  248) = (  -0.7071068   0.2121320  -0.0000000), wk =   0.0030000
        k(  249) = (  -0.1414214  -0.4242641   0.7071068), wk =   0.0060000
        k(  250) = (  -0.1060660  -0.3889087   0.6717514), wk =   0.0120000
        k(  251) = (  -0.0707107  -0.3535534   0.6363961), wk =   0.0060000
        k(  252) = (  -0.0707107  -0.4242641   0.7071068), wk =   0.0060000
        k(  253) = (  -0.0353553  -0.3889087   0.6717514), wk =   0.0120000
        k(  254) = (  -0.0000000  -0.3535534   0.6363961), wk =   0.0060000
        k(  255) = (  -0.7071068   0.2828427   0.0000000), wk =   0.0030000
        k(  256) = (  -0.7071068   0.3535534   0.0000000), wk =   0.0015000

                       cryst. coord.
        k(    1) = (   0.0000000   0.0000000   0.0000000), wk =   0.0002500
        k(    2) = (   0.0000000   0.0000000   0.0500000), wk =   0.0020000
        k(    3) = (   0.0000000   0.0000000   0.1000000), wk =   0.0020000
        k(    4) = (   0.0000000   0.0000000   0.1500000), wk =   0.0020000
        k(    5) = (   0.0000000   0.0000000   0.2000000), wk =   0.0020000
        k(    6) = (   0.0000000   0.0000000   0.2500000), wk =   0.0020000
        k(    7) = (   0.0000000   0.0000000   0.3000000), wk =   0.0020000
        k(    8) = (   0.0000000   0.0000000   0.3500000), wk =   0.0020000
        k(    9) = (   0.0000000   0.0000000   0.4000000), wk =   0.0020000
        k(   10) = (   0.0000000   0.0000000   0.4500000), wk =   0.0020000
        k(   11) = (   0.0000000   0.0000000  -0.5000000), wk =   0.0010000
        k(   12) = (   0.0000000   0.0500000   0.0500000), wk =   0.0015000
        k(   13) = (   0.0000000   0.0500000   0.1000000), wk =   0.0060000
        k(   14) = (   0.0000000   0.0500000   0.1500000), wk =   0.0060000
        k(   15) = (   0.0000000   0.0500000   0.2000000), wk =   0.0060000
        k(   16) = (   0.0000000   0.0500000   0.2500000), wk =   0.0060000
        k(   17) = (   0.0000000   0.0500000   0.3000000), wk =   0.0060000
        k(   18) = (   0.0000000   0.0500000   0.3500000), wk =   0.0060000
        k(   19) = (   0.0000000   0.0500000   0.4000000), wk =   0.0060000
        k(   20) = (   0.0000000   0.0500000   0.4500000), wk =   0.0060000
        k(   21) = (   0.0000000   0.0500000  -0.5000000), wk =   0.0060000
        k(   22) = (   0.0000000   0.0500000  -0.4500000), wk =   0.0060000
        k(   23) = (   0.0000000   0.0500000  -0.4000000), wk =   0.0060000
        k(   24) = (   0.0000000   0.0500000  -0.3500000), wk =   0.0060000
        k(   25) = (   0.0000000   0.0500000  -0.3000000), wk =   0.0060000
        k(   26) = (   0.0000000   0.0500000  -0.2500000), wk =   0.0060000
        k(   27) = (   0.0000000   0.0500000  -0.2000000), wk =   0.0060000
        k(   28) = (   0.0000000   0.0500000  -0.1500000), wk =   0.0060000
        k(   29) = (   0.0000000   0.0500000  -0.1000000), wk =   0.0060000
        k(   30) = (   0.0000000   0.0500000  -0.0500000), wk =   0.0030000
        k(   31) = (   0.0000000   0.1000000   0.1000000), wk =   0.0015000
        k(   32) = (   0.0000000   0.1000000   0.1500000), wk =   0.0060000
        k(   33) = (   0.0000000   0.1000000   0.2000000), wk =   0.0060000
        k(   34) = (   0.0000000   0.1000000   0.2500000), wk =   0.0060000
        k(   35) = (   0.0000000   0.1000000   0.3000000), wk =   0.0060000
        k(   36) = (   0.0000000   0.1000000   0.3500000), wk =   0.0060000
        k(   37) = (   0.0000000   0.1000000   0.4000000), wk =   0.0060000
        k(   38) = (   0.0000000   0.1000000   0.4500000), wk =   0.0060000
        k(   39) = (   0.0000000   0.1000000  -0.5000000), wk =   0.0060000
        k(   40) = (   0.0000000   0.1000000  -0.4500000), wk =   0.0060000
        k(   41) = (   0.0000000   0.1000000  -0.4000000), wk =   0.0060000
        k(   42) = (   0.0000000   0.1000000  -0.3500000), wk =   0.0060000
        k(   43) = (   0.0000000   0.1000000  -0.3000000), wk =   0.0060000
        k(   44) = (   0.0000000   0.1000000  -0.2500000), wk =   0.0060000
        k(   45) = (   0.0000000   0.1000000  -0.2000000), wk =   0.0060000
        k(   46) = (   0.0000000   0.1000000  -0.1500000), wk =   0.0060000
        k(   47) = (   0.0000000   0.1000000  -0.1000000), wk =   0.0030000
        k(   48) = (   0.0000000   0.1500000   0.1500000), wk =   0.0015000
        k(   49) = (   0.0000000   0.1500000   0.2000000), wk =   0.0060000
        k(   50) = (   0.0000000   0.1500000   0.2500000), wk =   0.0060000
        k(   51) = (   0.0000000   0.1500000   0.3000000), wk =   0.0060000
        k(   52) = (   0.0000000   0.1500000   0.3500000), wk =   0.0060000
        k(   53) = (   0.0000000   0.1500000   0.4000000), wk =   0.0060000
        k(   54) = (   0.0000000   0.1500000   0.4500000), wk =   0.0060000
        k(   55) = (   0.0000000   0.1500000  -0.5000000), wk =   0.0060000
        k(   56) = (   0.0000000   0.1500000  -0.4500000), wk =   0.0060000
        k(   57) = (   0.0000000   0.1500000  -0.4000000), wk =   0.0060000
        k(   58) = (   0.0000000   0.1500000  -0.3500000), wk =   0.0060000
        k(   59) = (   0.0000000   0.1500000  -0.3000000), wk =   0.0060000
        k(   60) = (   0.0000000   0.1500000  -0.2500000), wk =   0.0060000
        k(   61) = (   0.0000000   0.1500000  -0.2000000), wk =   0.0060000
        k(   62) = (   0.0000000   0.1500000  -0.1500000), wk =   0.0030000
        k(   63) = (   0.0000000   0.2000000   0.2000000), wk =   0.0015000
        k(   64) = (   0.0000000   0.2000000   0.2500000), wk =   0.0060000
        k(   65) = (   0.0000000   0.2000000   0.3000000), wk =   0.0060000
        k(   66) = (   0.0000000   0.2000000   0.3500000), wk =   0.0060000
        k(   67) = (   0.0000000   0.2000000   0.4000000), wk =   0.0060000
        k(   68) = (   0.0000000   0.2000000   0.4500000), wk =   0.0060000
        k(   69) = (   0.0000000   0.2000000  -0.5000000), wk =   0.0060000
        k(   70) = (   0.0000000   0.2000000  -0.4500000), wk =   0.0060000
        k(   71) = (   0.0000000   0.2000000  -0.4000000), wk =   0.0060000
        k(   72) = (   0.0000000   0.2000000  -0.3500000), wk =   0.0060000
        k(   73) = (   0.0000000   0.2000000  -0.3000000), wk =   0.0060000
        k(   74) = (   0.0000000   0.2000000  -0.2500000), wk =   0.0060000
        k(   75) = (   0.0000000   0.2000000  -0.2000000), wk =   0.0030000
        k(   76) = (   0.0000000   0.2500000   0.2500000), wk =   0.0015000
        k(   77) = (   0.0000000   0.2500000   0.3000000), wk =   0.0060000
        k(   78) = (   0.0000000   0.2500000   0.3500000), wk =   0.0060000
        k(   79) = (   0.0000000   0.2500000   0.4000000), wk =   0.0060000
        k(   80) = (   0.0000000   0.2500000   0.4500000), wk =   0.0060000
        k(   81) = (   0.0000000   0.2500000  -0.5000000), wk =   0.0060000
        k(   82) = (   0.0000000   0.2500000  -0.4500000), wk =   0.0060000
        k(   83) = (   0.0000000   0.2500000  -0.4000000), wk =   0.0060000
        k(   84) = (   0.0000000   0.2500000  -0.3500000), wk =   0.0060000
        k(   85) = (   0.0000000   0.2500000  -0.3000000), wk =   0.0060000
        k(   86) = (   0.0000000   0.2500000  -0.2500000), wk =   0.0030000
        k(   87) = (   0.0000000   0.3000000   0.3000000), wk =   0.0015000
        k(   88) = (   0.0000000   0.3000000   0.3500000), wk =   0.0060000
        k(   89) = (   0.0000000   0.3000000   0.4000000), wk =   0.0060000
        k(   90) = (   0.0000000   0.3000000   0.4500000), wk =   0.0060000
        k(   91) = (   0.0000000   0.3000000  -0.5000000), wk =   0.0060000
        k(   92) = (   0.0000000   0.3000000  -0.4500000), wk =   0.0060000
        k(   93) = (   0.0000000   0.3000000  -0.4000000), wk =   0.0060000
        k(   94) = (   0.0000000   0.3000000  -0.3500000), wk =   0.0060000
        k(   95) = (   0.0000000   0.3000000  -0.3000000), wk =   0.0030000
        k(   96) = (   0.0000000   0.3500000   0.3500000), wk =   0.0015000
        k(   97) = (   0.0000000   0.3500000   0.4000000), wk =   0.0060000
        k(   98) = (   0.0000000   0.3500000   0.4500000), wk =   0.0060000
        k(   99) = (   0.0000000   0.3500000  -0.5000000), wk =   0.0060000
        k(  100) = (   0.0000000   0.3500000  -0.4500000), wk =   0.0060000
        k(  101) = (   0.0000000   0.3500000  -0.4000000), wk =   0.0060000
        k(  102) = (   0.0000000   0.3500000  -0.3500000), wk =   0.0030000
        k(  103) = (   0.0000000   0.4000000   0.4000000), wk =   0.0015000
        k(  104) = (   0.0000000   0.4000000   0.4500000), wk =   0.0060000
        k(  105) = (   0.0000000   0.4000000  -0.5000000), wk =   0.0060000
        k(  106) = (   0.0000000   0.4000000  -0.4500000), wk =   0.0060000
        k(  107) = (   0.0000000   0.4000000  -0.4000000), wk =   0.0030000
        k(  108) = (   0.0000000   0.4500000   0.4500000), wk =   0.0015000
        k(  109) = (   0.0000000   0.4500000  -0.5000000), wk =   0.0060000
        k(  110) = (   0.0000000   0.4500000  -0.4500000), wk =   0.0030000
        k(  111) = (   0.0000000  -0.5000000  -0.5000000), wk =   0.0007500
        k(  112) = (   0.0500000   0.1000000   0.1500000), wk =   0.0060000
        k(  113) = (   0.0500000   0.1000000   0.2000000), wk =   0.0120000
        k(  114) = (   0.0500000   0.1000000   0.2500000), wk =   0.0120000
        k(  115) = (   0.0500000   0.1000000   0.3000000), wk =   0.0120000
        k(  116) = (   0.0500000   0.1000000   0.3500000), wk =   0.0120000
        k(  117) = (   0.0500000   0.1000000   0.4000000), wk =   0.0120000
        k(  118) = (   0.0500000   0.1000000   0.4500000), wk =   0.0120000
        k(  119) = (   0.0500000   0.1000000  -0.5000000), wk =   0.0120000
        k(  120) = (   0.0500000   0.1000000  -0.4500000), wk =   0.0060000
        k(  121) = (   0.0500000   0.1500000   0.2000000), wk =   0.0060000
        k(  122) = (   0.0500000   0.1500000   0.2500000), wk =   0.0120000
        k(  123) = (   0.0500000   0.1500000   0.3000000), wk =   0.0120000
        k(  124) = (   0.0500000   0.1500000   0.3500000), wk =   0.0120000
        k(  125) = (   0.0500000   0.1500000   0.4000000), wk =   0.0120000
        k(  126) = (   0.0500000   0.1500000   0.4500000), wk =   0.0120000
        k(  127) = (   0.0500000   0.1500000  -0.5000000), wk =   0.0120000
        k(  128) = (   0.0500000   0.1500000  -0.4500000), wk =   0.0120000
        k(  129) = (   0.0500000   0.1500000  -0.4000000), wk =   0.0120000
        k(  130) = (   0.0500000   0.1500000  -0.3500000), wk =   0.0120000
        k(  131) = (   0.0500000   0.1500000  -0.3000000), wk =   0.0120000
        k(  132) = (   0.0500000   0.1500000  -0.2500000), wk =   0.0120000
        k(  133) = (   0.0500000   0.1500000  -0.2000000), wk =   0.0120000
        k(  134) = (   0.0500000   0.1500000  -0.1500000), wk =   0.0120000
        k(  135) = (   0.0500000   0.1500000  -0.1000000), wk =   0.0060000
        k(  136) = (   0.0500000   0.2000000   0.2500000), wk =   0.0060000
        k(  137) = (   0.0500000   0.2000000   0.3000000), wk =   0.0120000
        k(  138) = (   0.0500000   0.2000000   0.3500000), wk =   0.0120000
        k(  139) = (   0.0500000   0.2000000   0.4000000), wk =   0.0120000
        k(  140) = (   0.0500000   0.2000000   0.4500000), wk =   0.0120000
        k(  141) = (   0.0500000   0.2000000  -0.5000000), wk =   0.0120000
        k(  142) = (   0.0500000   0.2000000  -0.4500000), wk =   0.0120000
        k(  143) = (   0.0500000   0.2000000  -0.4000000), wk =   0.0120000
        k(  144) = (   0.0500000   0.2000000  -0.3500000), wk =   0.0120000
        k(  145) = (   0.0500000   0.2000000  -0.3000000), wk =   0.0120000
        k(  146) = (   0.0500000   0.2000000  -0.2500000), wk =   0.0120000
        k(  147) = (   0.0500000   0.2000000  -0.2000000), wk =   0.0120000
        k(  148) = (   0.0500000   0.2000000  -0.1500000), wk =   0.0060000
        k(  149) = (   0.0500000   0.2500000   0.3000000), wk =   0.0060000
        k(  150) = (   0.0500000   0.2500000   0.3500000), wk =   0.0120000
        k(  151) = (   0.0500000   0.2500000   0.4000000), wk =   0.0120000
        k(  152) = (   0.0500000   0.2500000   0.4500000), wk =   0.0120000
        k(  153) = (   0.0500000   0.2500000  -0.5000000), wk =   0.0120000
        k(  154) = (   0.0500000   0.2500000  -0.4500000), wk =   0.0120000
        k(  155) = (   0.0500000   0.2500000  -0.4000000), wk =   0.0120000
        k(  156) = (   0.0500000   0.2500000  -0.3500000), wk =   0.0120000
        k(  157) = (   0.0500000   0.2500000  -0.3000000), wk =   0.0120000
        k(  158) = (   0.0500000   0.2500000  -0.2500000), wk =   0.0120000
        k(  159) = (   0.0500000   0.2500000  -0.2000000), wk =   0.0060000
        k(  160) = (   0.0500000   0.3000000   0.3500000), wk =   0.0060000
        k(  161) = (   0.0500000   0.3000000   0.4000000), wk =   0.0120000
        k(  162) = (   0.0500000   0.3000000   0.4500000), wk =   0.0120000
        k(  163) = (   0.0500000   0.3000000  -0.5000000), wk =   0.0120000
        k(  164) = (   0.0500000   0.3000000  -0.4500000), wk =   0.0120000
        k(  165) = (   0.0500000   0.3000000  -0.4000000), wk =   0.0120000
        k(  166) = (   0.0500000   0.3000000  -0.3500000), wk =   0.0120000
        k(  167) = (   0.0500000   0.3000000  -0.3000000), wk =   0.0120000
        k(  168) = (   0.0500000   0.3000000  -0.2500000), wk =   0.0060000
        k(  169) = (   0.0500000   0.3500000   0.4000000), wk =   0.0060000
        k(  170) = (   0.0500000   0.3500000   0.4500000), wk =   0.0120000
        k(  171) = (   0.0500000   0.3500000  -0.5000000), wk =   0.0120000
        k(  172) = (   0.0500000   0.3500000  -0.4500000), wk =   0.0120000
        k(  173) = (   0.0500000   0.3500000  -0.4000000), wk =   0.0120000
        k(  174) = (   0.0500000   0.3500000  -0.3500000), wk =   0.0120000
        k(  175) = (   0.0500000   0.3500000  -0.3000000), wk =   0.0060000
        k(  176) = (   0.0500000   0.4000000   0.4500000), wk =   0.0060000
        k(  177) = (   0.0500000   0.4000000  -0.5000000), wk =   0.0120000
        k(  178) = (   0.0500000   0.4000000  -0.4500000), wk =   0.0120000
        k(  179) = (   0.0500000   0.4000000  -0.4000000), wk =   0.0120000
        k(  180) = (   0.0500000   0.4000000  -0.3500000), wk =   0.0060000
        k(  181) = (   0.0500000   0.4500000  -0.5000000), wk =   0.0060000
        k(  182) = (   0.0500000   0.4500000  -0.4500000), wk =   0.0120000
        k(  183) = (   0.0500000   0.4500000  -0.4000000), wk =   0.0060000
        k(  184) = (   0.0500000  -0.5000000  -0.4500000), wk =   0.0030000
        k(  185) = (   0.1000000   0.2000000   0.3000000), wk =   0.0060000
        k(  186) = (   0.1000000   0.2000000   0.3500000), wk =   0.0120000
        k(  187) = (   0.1000000   0.2000000   0.4000000), wk =   0.0120000
        k(  188) = (   0.1000000   0.2000000   0.4500000), wk =   0.0120000
        k(  189) = (   0.1000000   0.2000000  -0.5000000), wk =   0.0120000
        k(  190) = (   0.1000000   0.2000000  -0.4500000), wk =   0.0120000
        k(  191) = (   0.1000000   0.2000000  -0.4000000), wk =   0.0060000
        k(  192) = (   0.1000000   0.2500000   0.3500000), wk =   0.0060000
        k(  193) = (   0.1000000   0.2500000   0.4000000), wk =   0.0120000
        k(  194) = (   0.1000000   0.2500000   0.4500000), wk =   0.0120000
        k(  195) = (   0.1000000   0.2500000  -0.5000000), wk =   0.0120000
        k(  196) = (   0.1000000   0.2500000  -0.4500000), wk =   0.0120000
        k(  197) = (   0.1000000   0.2500000  -0.4000000), wk =   0.0120000
        k(  198) = (   0.1000000   0.2500000  -0.3500000), wk =   0.0120000
        k(  199) = (   0.1000000   0.2500000  -0.3000000), wk =   0.0120000
        k(  200) = (   0.1000000   0.2500000  -0.2500000), wk =   0.0120000
        k(  201) = (   0.1000000   0.2500000  -0.2000000), wk =   0.0120000
        k(  202) = (   0.1000000   0.2500000  -0.1500000), wk =   0.0060000
        k(  203) = (   0.1000000   0.3000000   0.4000000), wk =   0.0060000
        k(  204) = (   0.1000000   0.3000000   0.4500000), wk =   0.0120000
        k(  205) = (   0.1000000   0.3000000  -0.5000000), wk =   0.0120000
        k(  206) = (   0.1000000   0.3000000  -0.4500000), wk =   0.0120000
        k(  207) = (   0.1000000   0.3000000  -0.4000000), wk =   0.0120000
        k(  208) = (   0.1000000   0.3000000  -0.3500000), wk =   0.0120000
        k(  209) = (   0.1000000   0.3000000  -0.3000000), wk =   0.0120000
        k(  210) = (   0.1000000   0.3000000  -0.2500000), wk =   0.0120000
        k(  211) = (   0.1000000   0.3000000  -0.2000000), wk =   0.0060000
        k(  212) = (   0.1000000   0.3500000   0.4500000), wk =   0.0060000
        k(  213) = (   0.1000000   0.3500000  -0.5000000), wk =   0.0120000
        k(  214) = (   0.1000000   0.3500000  -0.4500000), wk =   0.0120000
        k(  215) = (   0.1000000   0.3500000  -0.4000000), wk =   0.0120000
        k(  216) = (   0.1000000   0.3500000  -0.3500000), wk =   0.0120000
        k(  217) = (   0.1000000   0.3500000  -0.3000000), wk =   0.0120000
        k(  218) = (   0.1000000   0.3500000  -0.2500000), wk =   0.0060000
        k(  219) = (   0.1000000   0.4000000  -0.5000000), wk =   0.0060000
        k(  220) = (   0.1000000   0.4000000  -0.4500000), wk =   0.0120000
        k(  221) = (   0.1000000   0.4000000  -0.4000000), wk =   0.0120000
        k(  222) = (   0.1000000   0.4000000  -0.3500000), wk =   0.0120000
        k(  223) = (   0.1000000   0.4000000  -0.3000000), wk =   0.0060000
        k(  224) = (   0.1000000   0.4500000  -0.4500000), wk =   0.0060000
        k(  225) = (   0.1000000   0.4500000  -0.4000000), wk =   0.0120000
        k(  226) = (   0.1000000   0.4500000  -0.3500000), wk =   0.0060000
        k(  227) = (   0.1000000  -0.5000000  -0.4000000), wk =   0.0030000
        k(  228) = (   0.1500000   0.3000000   0.4500000), wk =   0.0060000
        k(  229) = (   0.1500000   0.3000000  -0.5000000), wk =   0.0120000
        k(  230) = (   0.1500000   0.3000000  -0.4500000), wk =   0.0120000
        k(  231) = (   0.1500000   0.3000000  -0.4000000), wk =   0.0120000
        k(  232) = (   0.1500000   0.3000000  -0.3500000), wk =   0.0060000
        k(  233) = (   0.1500000   0.3500000  -0.5000000), wk =   0.0060000
        k(  234) = (   0.1500000   0.3500000  -0.4500000), wk =   0.0120000
        k(  235) = (   0.1500000   0.3500000  -0.4000000), wk =   0.0120000
        k(  236) = (   0.1500000   0.3500000  -0.3500000), wk =   0.0120000
        k(  237) = (   0.1500000   0.3500000  -0.3000000), wk =   0.0120000
        k(  238) = (   0.1500000   0.3500000  -0.2500000), wk =   0.0120000
        k(  239) = (   0.1500000   0.3500000  -0.2000000), wk =   0.0060000
        k(  240) = (   0.1500000   0.4000000  -0.4500000), wk =   0.0060000
        k(  241) = (   0.1500000   0.4000000  -0.4000000), wk =   0.0120000
        k(  242) = (   0.1500000   0.4000000  -0.3500000), wk =   0.0120000
        k(  243) = (   0.1500000   0.4000000  -0.3000000), wk =   0.0120000
        k(  244) = (   0.1500000   0.4000000  -0.2500000), wk =   0.0060000
        k(  245) = (   0.1500000   0.4500000  -0.4000000), wk =   0.0060000
        k(  246) = (   0.1500000   0.4500000  -0.3500000), wk =   0.0120000
        k(  247) = (   0.1500000   0.4500000  -0.3000000), wk =   0.0060000
        k(  248) = (   0.1500000  -0.5000000  -0.3500000), wk =   0.0030000
        k(  249) = (   0.2000000   0.4000000  -0.4000000), wk =   0.0060000
        k(  250) = (   0.2000000   0.4000000  -0.3500000), wk =   0.0120000
        k(  251) = (   0.2000000   0.4000000  -0.3000000), wk =   0.0060000
        k(  252) = (   0.2000000   0.4500000  -0.3500000), wk =   0.0060000
        k(  253) = (   0.2000000   0.4500000  -0.3000000), wk =   0.0120000
        k(  254) = (   0.2000000   0.4500000  -0.2500000), wk =   0.0060000
        k(  255) = (   0.2000000  -0.5000000  -0.3000000), wk =   0.0030000
        k(  256) = (   0.2500000  -0.5000000  -0.2500000), wk =   0.0015000

     Dense  grid:    23505 G-vectors     FFT dimensions: (  40,  40,  40)

     Dynamical RAM for                 wfc:       0.11 MB

     Dynamical RAM for     wfc (w. buffer):       0.11 MB

     Dynamical RAM for           str. fact:       0.03 MB

     Dynamical RAM for           local pot:       0.00 MB

     Dynamical RAM for          nlocal pot:       0.02 MB

     Dynamical RAM for                qrad:       0.38 MB

     Dynamical RAM for          rho,v,vnew:       0.11 MB

     Dynamical RAM for           G-vectors:       0.05 MB

     Dynamical RAM for          h,s,v(r/c):       0.90 MB

     Dynamical RAM for          <psi|beta>:       0.01 MB

     Dynamical RAM for                 psi:       0.22 MB

     Dynamical RAM for                hpsi:       0.22 MB

     Dynamical RAM for      wfcinit/wfcrot:       0.33 MB

     Estimated static dynamical RAM per process >       0.87 MB

     Estimated max dynamical RAM per process >       2.22 MB

     Estimated total dynamical RAM >      62.18 MB

     The potential is recalculated from file :
     run_output/GaAs.save/charge-density

     Starting wfcs are   13 randomized atomic wfcs +   57 random wfcs

     Band Structure Calculation
     Davidson diagonalization with overlap

     Computing kpt #:     1  of   256
     total cpu time spent up to now is        0.6 secs

     Computing kpt #:     2  of   256
     total cpu time spent up to now is        1.0 secs

     Computing kpt #:     3  of   256
     total cpu time spent up to now is        1.3 secs

     Computing kpt #:     4  of   256
     total cpu time spent up to now is        1.6 secs

     Computing kpt #:     5  of   256
     total cpu time spent up to now is        1.9 secs

     Computing kpt #:     6  of   256
     total cpu time spent up to now is        2.3 secs

     Computing kpt #:     7  of   256
     total cpu time spent up to now is        2.6 secs

     Computing kpt #:     8  of   256
     total cpu time spent up to now is        3.0 secs

     Computing kpt #:     9  of   256
     total cpu time spent up to now is        3.3 secs

     Computing kpt #:    10  of   256
     total cpu time spent up to now is        3.7 secs

     Computing kpt #:    11  of   256
     total cpu time spent up to now is        4.0 secs

     Computing kpt #:    12  of   256
     total cpu time spent up to now is        4.3 secs

     Computing kpt #:    13  of   256
     total cpu time spent up to now is        4.8 secs

     Computing kpt #:    14  of   256
     total cpu time spent up to now is        5.2 secs

     Computing kpt #:    15  of   256
     total cpu time spent up to now is        5.5 secs

     Computing kpt #:    16  of   256
     total cpu time spent up to now is        5.9 secs

     Computing kpt #:    17  of   256
     total cpu time spent up to now is        6.2 secs

     Computing kpt #:    18  of   256
     total cpu time spent up to now is        6.6 secs

     Computing kpt #:    19  of   256
     total cpu time spent up to now is        7.0 secs

     Computing kpt #:    20  of   256
     total cpu time spent up to now is        7.3 secs

     Computing kpt #:    21  of   256
     total cpu time spent up to now is        7.7 secs

     Computing kpt #:    22  of   256
     total cpu time spent up to now is        8.0 secs

     Computing kpt #:    23  of   256
     total cpu time spent up to now is        8.4 secs

     Computing kpt #:    24  of   256
     total cpu time spent up to now is        8.8 secs

     Computing kpt #:    25  of   256
     total cpu time spent up to now is        9.1 secs

     Computing kpt #:    26  of   256
     total cpu time spent up to now is        9.5 secs

     Computing kpt #:    27  of   256
     total cpu time spent up to now is        9.9 secs

     Computing kpt #:    28  of   256
     total cpu time spent up to now is       10.3 secs

     Computing kpt #:    29  of   256
     total cpu time spent up to now is       10.6 secs

     Computing kpt #:    30  of   256
     total cpu time spent up to now is       11.0 secs

     Computing kpt #:    31  of   256
     total cpu time spent up to now is       11.3 secs

     Computing kpt #:    32  of   256
     total cpu time spent up to now is       11.7 secs

     Computing kpt #:    33  of   256
     total cpu time spent up to now is       12.0 secs

     Computing kpt #:    34  of   256
     total cpu time spent up to now is       12.4 secs

     Computing kpt #:    35  of   256
     total cpu time spent up to now is       12.8 secs

     Computing kpt #:    36  of   256
     total cpu time spent up to now is       13.2 secs

     Computing kpt #:    37  of   256
     total cpu time spent up to now is       13.5 secs

     Computing kpt #:    38  of   256
     total cpu time spent up to now is       13.9 secs

     Computing kpt #:    39  of   256
     total cpu time spent up to now is       14.2 secs

     Computing kpt #:    40  of   256
     total cpu time spent up to now is       14.6 secs

     Computing kpt #:    41  of   256
     total cpu time spent up to now is       15.0 secs

     Computing kpt #:    42  of   256
     total cpu time spent up to now is       15.4 secs

     Computing kpt #:    43  of   256
     total cpu time spent up to now is       15.8 secs

     Computing kpt #:    44  of   256
     total cpu time spent up to now is       16.2 secs

     Computing kpt #:    45  of   256
     total cpu time spent up to now is       16.6 secs

     Computing kpt #:    46  of   256
     total cpu time spent up to now is       17.0 secs

     Computing kpt #:    47  of   256
     total cpu time spent up to now is       17.3 secs

     Computing kpt #:    48  of   256
     total cpu time spent up to now is       17.6 secs

     Computing kpt #:    49  of   256
     total cpu time spent up to now is       18.0 secs

     Computing kpt #:    50  of   256
     total cpu time spent up to now is       18.4 secs

     Computing kpt #:    51  of   256
     total cpu time spent up to now is       18.7 secs

     Computing kpt #:    52  of   256
     total cpu time spent up to now is       19.1 secs

     Computing kpt #:    53  of   256
     total cpu time spent up to now is       19.4 secs

     Computing kpt #:    54  of   256
     total cpu time spent up to now is       19.8 secs

     Computing kpt #:    55  of   256
     total cpu time spent up to now is       20.2 secs

     Computing kpt #:    56  of   256
     total cpu time spent up to now is       20.6 secs

     Computing kpt #:    57  of   256
     total cpu time spent up to now is       21.0 secs

     Computing kpt #:    58  of   256
     total cpu time spent up to now is       21.3 secs

     Computing kpt #:    59  of   256
     total cpu time spent up to now is       21.6 secs

     Computing kpt #:    60  of   256
     total cpu time spent up to now is       22.0 secs

     Computing kpt #:    61  of   256
     total cpu time spent up to now is       22.4 secs

     Computing kpt #:    62  of   256
     total cpu time spent up to now is       22.7 secs

     Computing kpt #:    63  of   256
     total cpu time spent up to now is       23.1 secs

     Computing kpt #:    64  of   256
     total cpu time spent up to now is       23.5 secs

     Computing kpt #:    65  of   256
     total cpu time spent up to now is       23.8 secs

     Computing kpt #:    66  of   256
     total cpu time spent up to now is       24.1 secs

     Computing kpt #:    67  of   256
     total cpu time spent up to now is       24.5 secs

     Computing kpt #:    68  of   256
     total cpu time spent up to now is       24.9 secs

     Computing kpt #:    69  of   256
     total cpu time spent up to now is       25.3 secs

     Computing kpt #:    70  of   256
     total cpu time spent up to now is       25.6 secs

     Computing kpt #:    71  of   256
     total cpu time spent up to now is       26.0 secs

     Computing kpt #:    72  of   256
     total cpu time spent up to now is       26.3 secs

     Computing kpt #:    73  of   256
     total cpu time spent up to now is       26.7 secs

     Computing kpt #:    74  of   256
     total cpu time spent up to now is       27.1 secs

     Computing kpt #:    75  of   256
     total cpu time spent up to now is       27.4 secs

     Computing kpt #:    76  of   256
     total cpu time spent up to now is       27.8 secs

     Computing kpt #:    77  of   256
     total cpu time spent up to now is       28.2 secs

     Computing kpt #:    78  of   256
     total cpu time spent up to now is       28.6 secs

     Computing kpt #:    79  of   256
     total cpu time spent up to now is       28.9 secs

     Computing kpt #:    80  of   256
     total cpu time spent up to now is       29.3 secs

     Computing kpt #:    81  of   256
     total cpu time spent up to now is       29.7 secs

     Computing kpt #:    82  of   256
     total cpu time spent up to now is       30.0 secs

     Computing kpt #:    83  of   256
     total cpu time spent up to now is       30.4 secs

     Computing kpt #:    84  of   256
     total cpu time spent up to now is       30.8 secs

     Computing kpt #:    85  of   256
     total cpu time spent up to now is       31.1 secs

     Computing kpt #:    86  of   256
     total cpu time spent up to now is       31.5 secs

     Computing kpt #:    87  of   256
     total cpu time spent up to now is       35.0 secs

     Computing kpt #:    88  of   256
     total cpu time spent up to now is       36.0 secs

     Computing kpt #:    89  of   256
     total cpu time spent up to now is       36.4 secs

     Computing kpt #:    90  of   256
     total cpu time spent up to now is       36.8 secs

     Computing kpt #:    91  of   256
     total cpu time spent up to now is       37.1 secs

     Computing kpt #:    92  of   256
     total cpu time spent up to now is       37.5 secs

     Computing kpt #:    93  of   256
     total cpu time spent up to now is       37.8 secs

     Computing kpt #:    94  of   256
     total cpu time spent up to now is       38.4 secs

     Computing kpt #:    95  of   256
     total cpu time spent up to now is       38.8 secs

     Computing kpt #:    96  of   256
     total cpu time spent up to now is       39.2 secs

     Computing kpt #:    97  of   256
     total cpu time spent up to now is       39.6 secs

     Computing kpt #:    98  of   256
     total cpu time spent up to now is       39.9 secs

     Computing kpt #:    99  of   256
     total cpu time spent up to now is       40.3 secs

     Computing kpt #:   100  of   256
     total cpu time spent up to now is       40.7 secs

     Computing kpt #:   101  of   256
     total cpu time spent up to now is       41.1 secs

     Computing kpt #:   102  of   256
     total cpu time spent up to now is       41.5 secs

     Computing kpt #:   103  of   256
     total cpu time spent up to now is       41.9 secs

     Computing kpt #:   104  of   256
     total cpu time spent up to now is       42.3 secs

     Computing kpt #:   105  of   256
     total cpu time spent up to now is       42.6 secs

     Computing kpt #:   106  of   256
     total cpu time spent up to now is       43.0 secs

     Computing kpt #:   107  of   256
     total cpu time spent up to now is       43.3 secs

     Computing kpt #:   108  of   256
     total cpu time spent up to now is       43.6 secs

     Computing kpt #:   109  of   256
     total cpu time spent up to now is       44.0 secs

     Computing kpt #:   110  of   256
     total cpu time spent up to now is       44.4 secs

     Computing kpt #:   111  of   256
     total cpu time spent up to now is       44.8 secs

     Computing kpt #:   112  of   256
     total cpu time spent up to now is       45.1 secs

     Computing kpt #:   113  of   256
     total cpu time spent up to now is       45.5 secs

     Computing kpt #:   114  of   256
     total cpu time spent up to now is       45.8 secs

     Computing kpt #:   115  of   256
     total cpu time spent up to now is       46.2 secs

     Computing kpt #:   116  of   256
     total cpu time spent up to now is       46.6 secs

     Computing kpt #:   117  of   256
     total cpu time spent up to now is       46.9 secs

     Computing kpt #:   118  of   256
     total cpu time spent up to now is       47.2 secs

     Computing kpt #:   119  of   256
     total cpu time spent up to now is       47.6 secs

     Computing kpt #:   120  of   256
     total cpu time spent up to now is       47.9 secs

     Computing kpt #:   121  of   256
     total cpu time spent up to now is       48.3 secs

     Computing kpt #:   122  of   256
     total cpu time spent up to now is       48.6 secs

     Computing kpt #:   123  of   256
     total cpu time spent up to now is       49.0 secs

     Computing kpt #:   124  of   256
     total cpu time spent up to now is       49.3 secs

     Computing kpt #:   125  of   256
     total cpu time spent up to now is       49.7 secs

     Computing kpt #:   126  of   256
     total cpu time spent up to now is       50.0 secs

     Computing kpt #:   127  of   256
     total cpu time spent up to now is       50.4 secs

     Computing kpt #:   128  of   256
     total cpu time spent up to now is       50.8 secs

     Computing kpt #:   129  of   256
     total cpu time spent up to now is       51.1 secs

     Computing kpt #:   130  of   256
     total cpu time spent up to now is       51.5 secs

     Computing kpt #:   131  of   256
     total cpu time spent up to now is       51.9 secs

     Computing kpt #:   132  of   256
     total cpu time spent up to now is       52.2 secs

     Computing kpt #:   133  of   256
     total cpu time spent up to now is       52.6 secs

     Computing kpt #:   134  of   256
     total cpu time spent up to now is       52.9 secs

     Computing kpt #:   135  of   256
     total cpu time spent up to now is       53.3 secs

     Computing kpt #:   136  of   256
     total cpu time spent up to now is       53.7 secs

     Computing kpt #:   137  of   256
     total cpu time spent up to now is       54.0 secs

     Computing kpt #:   138  of   256
     total cpu time spent up to now is       54.4 secs

     Computing kpt #:   139  of   256
     total cpu time spent up to now is       54.7 secs

     Computing kpt #:   140  of   256
     total cpu time spent up to now is       55.0 secs

     Computing kpt #:   141  of   256
     total cpu time spent up to now is       55.4 secs

     Computing kpt #:   142  of   256
     total cpu time spent up to now is       55.8 secs

     Computing kpt #:   143  of   256
     total cpu time spent up to now is       56.1 secs

     Computing kpt #:   144  of   256
     total cpu time spent up to now is       56.5 secs

     Computing kpt #:   145  of   256
     total cpu time spent up to now is       56.8 secs

     Computing kpt #:   146  of   256
     total cpu time spent up to now is       57.1 secs

     Computing kpt #:   147  of   256
     total cpu time spent up to now is       57.5 secs

     Computing kpt #:   148  of   256
     total cpu time spent up to now is       57.8 secs

     Computing kpt #:   149  of   256
     total cpu time spent up to now is       58.2 secs

     Computing kpt #:   150  of   256
     total cpu time spent up to now is       58.5 secs

     Computing kpt #:   151  of   256
     total cpu time spent up to now is       58.9 secs

     Computing kpt #:   152  of   256
     total cpu time spent up to now is       59.2 secs

     Computing kpt #:   153  of   256
     total cpu time spent up to now is       59.6 secs

     Computing kpt #:   154  of   256
     total cpu time spent up to now is       60.0 secs

     Computing kpt #:   155  of   256
     total cpu time spent up to now is       60.4 secs

     Computing kpt #:   156  of   256
     total cpu time spent up to now is       60.8 secs

     Computing kpt #:   157  of   256
     total cpu time spent up to now is       61.1 secs

     Computing kpt #:   158  of   256
     total cpu time spent up to now is       61.5 secs

     Computing kpt #:   159  of   256
     total cpu time spent up to now is       62.0 secs

     Computing kpt #:   160  of   256
     total cpu time spent up to now is       63.0 secs

     Computing kpt #:   161  of   256
     total cpu time spent up to now is       63.4 secs

     Computing kpt #:   162  of   256
     total cpu time spent up to now is       63.7 secs

     Computing kpt #:   163  of   256
     total cpu time spent up to now is       64.1 secs

     Computing kpt #:   164  of   256
     total cpu time spent up to now is       64.5 secs

     Computing kpt #:   165  of   256
     total cpu time spent up to now is       64.9 secs

     Computing kpt #:   166  of   256
     total cpu time spent up to now is       65.2 secs

     Computing kpt #:   167  of   256
     total cpu time spent up to now is       65.6 secs

     Computing kpt #:   168  of   256
     total cpu time spent up to now is       66.0 secs

     Computing kpt #:   169  of   256
     total cpu time spent up to now is       66.4 secs

     Computing kpt #:   170  of   256
     total cpu time spent up to now is       66.8 secs

     Computing kpt #:   171  of   256
     total cpu time spent up to now is       69.1 secs

     Computing kpt #:   172  of   256
     total cpu time spent up to now is       70.0 secs

     Computing kpt #:   173  of   256
     total cpu time spent up to now is       70.4 secs

     Computing kpt #:   174  of   256
     total cpu time spent up to now is       70.7 secs

     Computing kpt #:   175  of   256
     total cpu time spent up to now is       71.1 secs

     Computing kpt #:   176  of   256
     total cpu time spent up to now is       71.6 secs

     Computing kpt #:   177  of   256
     total cpu time spent up to now is       71.9 secs

     Computing kpt #:   178  of   256
     total cpu time spent up to now is       72.3 secs

     Computing kpt #:   179  of   256
     total cpu time spent up to now is       72.7 secs

     Computing kpt #:   180  of   256
     total cpu time spent up to now is       73.1 secs

     Computing kpt #:   181  of   256
     total cpu time spent up to now is       73.4 secs

     Computing kpt #:   182  of   256
     total cpu time spent up to now is       73.9 secs

     Computing kpt #:   183  of   256
     total cpu time spent up to now is       74.2 secs

     Computing kpt #:   184  of   256
     total cpu time spent up to now is       74.6 secs

     Computing kpt #:   185  of   256
     total cpu time spent up to now is       74.9 secs

     Computing kpt #:   186  of   256
     total cpu time spent up to now is       75.3 secs

     Computing kpt #:   187  of   256
     total cpu time spent up to now is       75.7 secs

     Computing kpt #:   188  of   256
     total cpu time spent up to now is       76.0 secs

     Computing kpt #:   189  of   256
     total cpu time spent up to now is       76.4 secs

     Computing kpt #:   190  of   256
     total cpu time spent up to now is       76.8 secs

     Computing kpt #:   191  of   256
     total cpu time spent up to now is       77.2 secs

     Computing kpt #:   192  of   256
     total cpu time spent up to now is       77.5 secs

     Computing kpt #:   193  of   256
     total cpu time spent up to now is       77.9 secs

     Computing kpt #:   194  of   256
     total cpu time spent up to now is       78.2 secs

     Computing kpt #:   195  of   256
     total cpu time spent up to now is       78.6 secs

     Computing kpt #:   196  of   256
     total cpu time spent up to now is       79.0 secs

     Computing kpt #:   197  of   256
     total cpu time spent up to now is       79.3 secs

     Computing kpt #:   198  of   256
     total cpu time spent up to now is       79.7 secs

     Computing kpt #:   199  of   256
     total cpu time spent up to now is       80.1 secs

     Computing kpt #:   200  of   256
     total cpu time spent up to now is       80.4 secs

     Computing kpt #:   201  of   256
     total cpu time spent up to now is       80.8 secs

     Computing kpt #:   202  of   256
     total cpu time spent up to now is       81.2 secs

     Computing kpt #:   203  of   256
     total cpu time spent up to now is       81.5 secs

     Computing kpt #:   204  of   256
     total cpu time spent up to now is       81.9 secs

     Computing kpt #:   205  of   256
     total cpu time spent up to now is       82.3 secs

     Computing kpt #:   206  of   256
     total cpu time spent up to now is       82.6 secs

     Computing kpt #:   207  of   256
     total cpu time spent up to now is       83.0 secs

     Computing kpt #:   208  of   256
     total cpu time spent up to now is       83.4 secs

     Computing kpt #:   209  of   256
     total cpu time spent up to now is       83.7 secs

     Computing kpt #:   210  of   256
     total cpu time spent up to now is       84.1 secs

     Computing kpt #:   211  of   256
     total cpu time spent up to now is       84.5 secs

     Computing kpt #:   212  of   256
     total cpu time spent up to now is       84.9 secs

     Computing kpt #:   213  of   256
     total cpu time spent up to now is       85.2 secs

     Computing kpt #:   214  of   256
     total cpu time spent up to now is       85.6 secs

     Computing kpt #:   215  of   256
     total cpu time spent up to now is       86.0 secs

     Computing kpt #:   216  of   256
     total cpu time spent up to now is       86.4 secs

     Computing kpt #:   217  of   256
     total cpu time spent up to now is       86.8 secs

     Computing kpt #:   218  of   256
     total cpu time spent up to now is       87.2 secs

     Computing kpt #:   219  of   256
     total cpu time spent up to now is       87.5 secs

     Computing kpt #:   220  of   256
     total cpu time spent up to now is       87.9 secs

     Computing kpt #:   221  of   256
     total cpu time spent up to now is       88.3 secs

     Computing kpt #:   222  of   256
     total cpu time spent up to now is       88.6 secs

     Computing kpt #:   223  of   256
     total cpu time spent up to now is       89.0 secs

     Computing kpt #:   224  of   256
     total cpu time spent up to now is       89.3 secs

     Computing kpt #:   225  of   256
     total cpu time spent up to now is       89.7 secs

     Computing kpt #:   226  of   256
     total cpu time spent up to now is       90.1 secs

     Computing kpt #:   227  of   256
     total cpu time spent up to now is       90.4 secs

     Computing kpt #:   228  of   256
     total cpu time spent up to now is       90.8 secs

     Computing kpt #:   229  of   256
     total cpu time spent up to now is       91.1 secs

     Computing kpt #:   230  of   256
     total cpu time spent up to now is       91.5 secs

     Computing kpt #:   231  of   256
     total cpu time spent up to now is       91.9 secs

     Computing kpt #:   232  of   256
     total cpu time spent up to now is       92.2 secs

     Computing kpt #:   233  of   256
     total cpu time spent up to now is       92.6 secs

     Computing kpt #:   234  of   256
     total cpu time spent up to now is       93.0 secs

     Computing kpt #:   235  of   256
     total cpu time spent up to now is       93.3 secs

     Computing kpt #:   236  of   256
     total cpu time spent up to now is       93.7 secs

     Computing kpt #:   237  of   256
     total cpu time spent up to now is       94.1 secs

     Computing kpt #:   238  of   256
     total cpu time spent up to now is       94.4 secs

     Computing kpt #:   239  of   256
     total cpu time spent up to now is       94.8 secs

     Computing kpt #:   240  of   256
     total cpu time spent up to now is       95.2 secs

     Computing kpt #:   241  of   256
     total cpu time spent up to now is       95.6 secs

     Computing kpt #:   242  of   256
     total cpu time spent up to now is       95.9 secs

     Computing kpt #:   243  of   256
     total cpu time spent up to now is       96.3 secs

     Computing kpt #:   244  of   256
     total cpu time spent up to now is       96.7 secs

     Computing kpt #:   245  of   256
     total cpu time spent up to now is       97.1 secs

     Computing kpt #:   246  of   256
     total cpu time spent up to now is       97.9 secs

     Computing kpt #:   247  of   256
     total cpu time spent up to now is       98.2 secs

     Computing kpt #:   248  of   256
     total cpu time spent up to now is       98.6 secs

     Computing kpt #:   249  of   256
     total cpu time spent up to now is       99.0 secs

     Computing kpt #:   250  of   256
     total cpu time spent up to now is       99.4 secs

     Computing kpt #:   251  of   256
     total cpu time spent up to now is       99.8 secs

     Computing kpt #:   252  of   256
     total cpu time spent up to now is      100.1 secs

     Computing kpt #:   253  of   256
     total cpu time spent up to now is      100.5 secs

     Computing kpt #:   254  of   256
     total cpu time spent up to now is      100.9 secs

     Computing kpt #:   255  of   256
     total cpu time spent up to now is      101.2 secs

     Computing kpt #:   256  of   256
     total cpu time spent up to now is      101.6 secs

     ethr =  5.00E-06,  avg # of iterations = 17.2

     total cpu time spent up to now is      101.6 secs

     End of band structure calculation

          k = 0.0000 0.0000 0.0000 (  2891 PWs)   bands (ev):

    -7.8527   5.0027   5.0027   5.0027   5.8020   8.7765   8.7765   8.7765
    12.6381  15.2615  15.2615  16.6895  16.6895  16.6895  19.5549  29.5630
    29.5630  29.5630  31.6644  31.6644  31.6644  33.0858  33.0858  33.5463
    33.5463  33.5463  41.3243  43.6346  43.6346  43.6346  44.9962  44.9962
    44.9962  45.9839  45.9839  47.7944  47.7944  47.7944  48.0716  48.0716
    48.3284  48.3284  48.3284  48.6248  48.7466  48.7466  48.7466  49.3432
    49.3432  49.3432  53.2398  54.2838  54.2838  54.2838  55.1233  55.1233
    55.1233  58.9188  60.9051  70.3884  70.3884  70.3884  71.8513  71.8513
    74.2566  76.4294  76.4294  76.4294  81.3005  81.3005

     occupation numbers 
     1.0000   1.0000   1.0000   1.0000   0.0000   0.0000   0.0000   0.0000
     0.0000   0.0000   0.0000   0.0000   0.0000   0.0000   0.0000   0.0000
     0.0000   0.0000   0.0000   0.0000   0.0000   0.0000   0.0000   0.0000
     0.0000   0.0000   0.0000   0.0000   0.0000   0.0000   0.0000   0.0000
     0.0000   0.0000   0.0000   0.0000   0.0000   0.0000   0.0000   0.0000
     0.0000   0.0000   0.0000   0.0000   0.0000   0.0000   0.0000   0.0000
     0.0000   0.0000   0.0000   0.0000   0.0000   0.0000   0.0000   0.0000
     0.0000   0.0000   0.0000   0.0000   0.0000   0.0000   0.0000   0.0000
     0.0000   0.0000   0.0000   0.0000   0.0000   0.0000

          k = 0.0354 0.0354-0.0354 (  2918 PWs)   bands (ev):

    -7.8253   4.4195   4.9594   4.9594   6.2507   8.8177   8.8417   8.8417
[...]
     0.0000   0.0000   0.0000   0.0000   0.0000   0.0000   0.0000   0.0000
     0.0000   0.0000   0.0000   0.0000   0.0000   0.0000   0.0000   0.0000
     0.0000   0.0000   0.0000   0.0000   0.0000   0.0000   0.0000   0.0000
     0.0000   0.0000   0.0000   0.0000   0.0000   0.0000   0.0000   0.0000
     0.0000   0.0000   0.0000   0.0000   0.0000   0.0000   0.0000   0.0000
     0.0000   0.0000   0.0000   0.0000   0.0000   0.0000   0.0000   0.0000
     0.0000   0.0000   0.0000   0.0000   0.0000   0.0000   0.0000   0.0000
     0.0000   0.0000   0.0000   0.0000   0.0000   0.0000

          k =-0.0707-0.4950 0.7071 (  2938 PWs)   bands (ev):

    -5.4915  -1.6844   1.6017   1.9402   7.9517   8.2430  11.9224  13.5418
    15.4904  17.3780  18.4037  19.3005  21.4021  22.0733  22.7708  24.2223
    24.6475  25.5265  26.7524  27.6674  29.2344  29.8261  30.6384  31.6179
    33.9476  34.9969  36.2724  36.8890  37.2077  39.2188  41.0436  41.7938
    41.8659  42.9423  44.5095  46.1401  47.1630  47.7976  48.2068  49.5792
    51.1092  51.9889  52.4932  53.2456  53.5185  54.5361  55.9869  56.7121
    56.9847  57.8072  58.3894  59.0432  61.1966  62.4824  62.8056  63.5852
    63.6769  64.3170  66.6356  66.8410  67.1690  67.2942  67.5257  68.0855
    69.7208  69.7838  70.8984  72.2392  73.2373  73.6594

     occupation numbers 
     1.0000   1.0000   1.0000   1.0000   0.0000   0.0000   0.0000   0.0000
     0.0000   0.0000   0.0000   0.0000   0.0000   0.0000   0.0000   0.0000
     0.0000   0.0000   0.0000   0.0000   0.0000   0.0000   0.0000   0.0000
     0.0000   0.0000   0.0000   0.0000   0.0000   0.0000   0.0000   0.0000
     0.0000   0.0000   0.0000   0.0000   0.0000   0.0000   0.0000   0.0000
     0.0000   0.0000   0.0000   0.0000   0.0000   0.0000   0.0000   0.0000
     0.0000   0.0000   0.0000   0.0000   0.0000   0.0000   0.0000   0.0000
     0.0000   0.0000   0.0000   0.0000   0.0000   0.0000   0.0000   0.0000
     0.0000   0.0000   0.0000   0.0000   0.0000   0.0000

          k =-0.0354-0.4596 0.6718 (  2942 PWs)   bands (ev):

    -5.4203  -1.7351   1.3879   1.8812   8.1636   8.9148  11.7359  12.6002
    15.6370  17.4042  18.2201  19.4102  21.7669  22.6671  23.3493  23.6977
    24.4579  25.0089  27.6475  28.4825  29.2032  29.5328  30.5406  31.2388
    33.2392  34.6115  35.0220  36.3876  38.0262  39.4780  40.4384  41.1778
    42.7191  42.9046  44.9681  46.3559  47.3837  47.6587  49.3982  49.8430
    51.7808  52.1587  52.7026  53.2142  53.9187  54.7786  54.8852  55.5712
    56.4530  57.5720  59.2130  60.1403  60.7348  61.8832  62.4246  63.1245
    63.6641  65.1125  65.4536  66.1873  66.5737  67.9012  68.1819  68.6629
    69.6182  70.4672  70.8301  71.8900  72.6162  73.2748

     occupation numbers 
     1.0000   1.0000   1.0000   1.0000   0.0000   0.0000   0.0000   0.0000
     0.0000   0.0000   0.0000   0.0000   0.0000   0.0000   0.0000   0.0000
     0.0000   0.0000   0.0000   0.0000   0.0000   0.0000   0.0000   0.0000
     0.0000   0.0000   0.0000   0.0000   0.0000   0.0000   0.0000   0.0000
     0.0000   0.0000   0.0000   0.0000   0.0000   0.0000   0.0000   0.0000
     0.0000   0.0000   0.0000   0.0000   0.0000   0.0000   0.0000   0.0000
     0.0000   0.0000   0.0000   0.0000   0.0000   0.0000   0.0000   0.0000
     0.0000   0.0000   0.0000   0.0000   0.0000   0.0000   0.0000   0.0000
     0.0000   0.0000   0.0000   0.0000   0.0000   0.0000

          k =-0.0000-0.4243 0.6364 (  2953 PWs)   bands (ev):

    -5.4213  -1.7111   1.1742   1.9927   8.3063   9.7468  11.4577  11.8212
    15.3627  16.9758  18.4960  19.7479  21.6484  22.2591  23.8033  24.0807
    24.7097  25.1666  27.4345  28.8120  29.1232  29.9481  31.1302  31.3748
    32.5787  33.3406  34.9141  35.9477  38.2058  39.2121  39.9531  41.1879
    43.1420  43.9377  45.0877  45.8849  47.0544  48.7330  49.2952  51.0895
    51.3204  51.8005  52.9720  53.1652  53.5035  53.8306  55.2292  55.7971
    57.0881  57.7053  58.5052  60.0953  61.5362  61.7346  62.6235  63.0533
    63.7405  63.8740  64.2708  65.0209  67.0499  68.1281  68.3329  69.0878
    69.8211  70.7829  70.8147  72.4686  72.9617  73.4089

     occupation numbers 
     1.0000   1.0000   1.0000   1.0000   0.0000   0.0000   0.0000   0.0000
     0.0000   0.0000   0.0000   0.0000   0.0000   0.0000   0.0000   0.0000
     0.0000   0.0000   0.0000   0.0000   0.0000   0.0000   0.0000   0.0000
     0.0000   0.0000   0.0000   0.0000   0.0000   0.0000   0.0000   0.0000
     0.0000   0.0000   0.0000   0.0000   0.0000   0.0000   0.0000   0.0000
     0.0000   0.0000   0.0000   0.0000   0.0000   0.0000   0.0000   0.0000
     0.0000   0.0000   0.0000   0.0000   0.0000   0.0000   0.0000   0.0000
     0.0000   0.0000   0.0000   0.0000   0.0000   0.0000   0.0000   0.0000
     0.0000   0.0000   0.0000   0.0000   0.0000   0.0000

          k =-0.7071 0.2121-0.0000 (  2946 PWs)   bands (ev):

    -5.4000  -1.7945   1.6375   1.7833   7.9466   8.1587  12.6728  12.8240
    15.9521  17.4450  18.3492  19.0059  22.1327  22.9228  23.1378  23.4677
    24.0542  24.4512  27.7726  28.6935  28.8429  29.1080  29.6107  31.4372
    34.0502  34.8914  36.1418  37.0995  38.3046  39.1739  40.3071  41.6742
    41.9119  42.5674  44.5573  45.9206  47.2758  47.6832  48.1559  50.1361
    51.8523  52.2781  53.1576  53.8497  54.1774  54.2214  55.1887  55.3908
    56.2403  58.5582  58.7998  60.6274  60.8775  61.0053  61.6355  63.5399
    64.6974  64.9798  65.3397  66.2501  66.7365  68.0851  68.7631  69.0808
    70.1998  70.3009  70.8576  71.2602  71.6899  72.0819

     occupation numbers 
     1.0000   1.0000   1.0000   1.0000   0.0000   0.0000   0.0000   0.0000
     0.0000   0.0000   0.0000   0.0000   0.0000   0.0000   0.0000   0.0000
     0.0000   0.0000   0.0000   0.0000   0.0000   0.0000   0.0000   0.0000
     0.0000   0.0000   0.0000   0.0000   0.0000   0.0000   0.0000   0.0000
     0.0000   0.0000   0.0000   0.0000   0.0000   0.0000   0.0000   0.0000
     0.0000   0.0000   0.0000   0.0000   0.0000   0.0000   0.0000   0.0000
     0.0000   0.0000   0.0000   0.0000   0.0000   0.0000   0.0000   0.0000
     0.0000   0.0000   0.0000   0.0000   0.0000   0.0000   0.0000   0.0000
     0.0000   0.0000   0.0000   0.0000   0.0000   0.0000

          k =-0.1414-0.4243 0.7071 (  2945 PWs)   bands (ev):

    -5.6565  -1.4576   1.3067   2.2760   8.8901   9.2823  10.1565  13.2836
    14.4737  16.4427  18.9549  19.5696  20.5023  21.7500  22.7666  25.5418
    25.9864  26.3239  27.0124  27.4416  28.3030  30.6193  32.0661  32.5992
    33.8466  34.0873  34.7454  35.4270  36.1543  39.9511  40.6505  41.5506
    42.0294  43.9814  46.3341  46.8232  47.4657  48.0252  48.6550  49.5553
    49.9087  50.0866  50.3525  53.5780  54.8641  55.4173  56.6367  56.8112
    57.1236  57.7864  58.1832  58.7980  60.1305  62.3019  62.9233  63.2041
    63.4230  63.8205  64.9201  66.2640  66.4482  67.6998  68.2632  68.6127
    70.0567  70.4996  70.7860  71.5745  72.9779  74.2712

     occupation numbers 
     1.0000   1.0000   1.0000   1.0000   0.0000   0.0000   0.0000   0.0000
     0.0000   0.0000   0.0000   0.0000   0.0000   0.0000   0.0000   0.0000
     0.0000   0.0000   0.0000   0.0000   0.0000   0.0000   0.0000   0.0000
     0.0000   0.0000   0.0000   0.0000   0.0000   0.0000   0.0000   0.0000
     0.0000   0.0000   0.0000   0.0000   0.0000   0.0000   0.0000   0.0000
     0.0000   0.0000   0.0000   0.0000   0.0000   0.0000   0.0000   0.0000
     0.0000   0.0000   0.0000   0.0000   0.0000   0.0000   0.0000   0.0000
     0.0000   0.0000   0.0000   0.0000   0.0000   0.0000   0.0000   0.0000
     0.0000   0.0000   0.0000   0.0000   0.0000   0.0000

          k =-0.1061-0.3889 0.6718 (  2944 PWs)   bands (ev):

    -5.5291  -1.5934   1.1917   2.1063   9.0445   9.6398  10.3249  12.3959
    14.7716  16.8820  18.5780  19.5738  21.0823  22.1246  23.2863  24.6480
    25.7542  26.4341  26.9545  27.4230  29.4631  30.2075  31.4068  32.3779
    33.2037  33.7870  34.4696  34.8988  36.6137  39.2913  41.0344  41.3973
    42.9961  43.6111  46.1761  46.8649  47.1747  48.4798  48.9852  49.5860
    49.9692  51.2502  51.8100  52.9274  54.6941  55.3316  55.9049  56.4197
    57.4149  57.9054  58.7841  59.3223  59.8876  61.6312  62.5314  62.9118
    63.5262  64.3616  65.1121  65.3794  65.9277  67.1851  67.9771  69.1903
    70.0726  71.3725  71.9851  72.1591  73.0202  73.7140

     occupation numbers 
     1.0000   1.0000   1.0000   1.0000   0.0000   0.0000   0.0000   0.0000
     0.0000   0.0000   0.0000   0.0000   0.0000   0.0000   0.0000   0.0000
     0.0000   0.0000   0.0000   0.0000   0.0000   0.0000   0.0000   0.0000
     0.0000   0.0000   0.0000   0.0000   0.0000   0.0000   0.0000   0.0000
     0.0000   0.0000   0.0000   0.0000   0.0000   0.0000   0.0000   0.0000
     0.0000   0.0000   0.0000   0.0000   0.0000   0.0000   0.0000   0.0000
     0.0000   0.0000   0.0000   0.0000   0.0000   0.0000   0.0000   0.0000
     0.0000   0.0000   0.0000   0.0000   0.0000   0.0000   0.0000   0.0000
     0.0000   0.0000   0.0000   0.0000   0.0000   0.0000

          k =-0.0707-0.3536 0.6364 (  2948 PWs)   bands (ev):

    -5.4826  -1.6431   1.1554   2.0456   9.0707   9.6844  10.7643  11.7966
    14.8584  17.3617  18.0881  19.5530  21.3288  22.6489  23.3818  24.1639
    25.4005  26.2964  26.9378  28.2670  29.0636  30.8118  31.4158  31.8521
    32.4704  33.6764  34.4874  34.7575  37.4791  38.3346  41.0657  41.7343
    42.9096  44.1071  45.7776  46.5603  47.1304  48.7776  49.1247  49.6088
    50.3555  51.7853  52.6057  53.6220  53.8156  53.9212  55.3696  56.4469
    57.6519  58.1064  59.5986  60.0160  60.5781  61.0743  61.3367  62.4626
    63.2188  64.2817  64.6940  65.8113  66.6945  67.4218  68.2602  68.9506
    69.3221  70.9611  72.2422  72.9905  73.2653  73.7267

     occupation numbers 
     1.0000   1.0000   1.0000   1.0000   0.0000   0.0000   0.0000   0.0000
     0.0000   0.0000   0.0000   0.0000   0.0000   0.0000   0.0000   0.0000
     0.0000   0.0000   0.0000   0.0000   0.0000   0.0000   0.0000   0.0000
     0.0000   0.0000   0.0000   0.0000   0.0000   0.0000   0.0000   0.0000
     0.0000   0.0000   0.0000   0.0000   0.0000   0.0000   0.0000   0.0000
     0.0000   0.0000   0.0000   0.0000   0.0000   0.0000   0.0000   0.0000
     0.0000   0.0000   0.0000   0.0000   0.0000   0.0000   0.0000   0.0000
     0.0000   0.0000   0.0000   0.0000   0.0000   0.0000   0.0000   0.0000
     0.0000   0.0000   0.0000   0.0000   0.0000   0.0000

          k =-0.0707-0.4243 0.7071 (  2945 PWs)   bands (ev):

    -5.4608  -1.6629   1.3345   1.8542   8.9009   9.1421  10.7819  12.4584
    15.4377  17.2395  18.4157  19.4658  21.3422  22.3375  23.2569  24.1900
    25.1142  25.6503  27.4541  27.7424  29.2910  30.2252  30.9610  32.2904
    32.8913  33.9386  34.5357  35.1077  37.3172  40.0057  41.1221  41.6790
    42.2814  42.6444  45.8402  46.5068  47.8912  48.5082  49.4848  49.6089
    50.6312  51.2150  51.7753  52.7994  54.4563  55.1781  55.6955  56.2475
    56.8447  57.4213  58.4717  59.8695  60.6298  61.4838  62.8886  63.6540
    64.2050  64.8453  65.0452  65.7534  65.8902  67.4184  67.6142  68.7078
    69.4377  70.2003  71.7341  72.5703  72.7161  73.6919

     occupation numbers 
     1.0000   1.0000   1.0000   1.0000   0.0000   0.0000   0.0000   0.0000
     0.0000   0.0000   0.0000   0.0000   0.0000   0.0000   0.0000   0.0000
     0.0000   0.0000   0.0000   0.0000   0.0000   0.0000   0.0000   0.0000
     0.0000   0.0000   0.0000   0.0000   0.0000   0.0000   0.0000   0.0000
     0.0000   0.0000   0.0000   0.0000   0.0000   0.0000   0.0000   0.0000
     0.0000   0.0000   0.0000   0.0000   0.0000   0.0000   0.0000   0.0000
     0.0000   0.0000   0.0000   0.0000   0.0000   0.0000   0.0000   0.0000
     0.0000   0.0000   0.0000   0.0000   0.0000   0.0000   0.0000   0.0000
     0.0000   0.0000   0.0000   0.0000   0.0000   0.0000

          k =-0.0354-0.3889 0.6718 (  2952 PWs)   bands (ev):

    -5.4110  -1.6979   1.2562   1.7647   9.0980   9.7592  10.7058  11.5539
    15.6449  17.4124  18.1921  19.4542  21.6162  22.7925  23.3340  24.1140
    24.5455  25.8227  27.1092  28.4496  29.5210  30.4603  31.1222  32.3654
    32.5890  32.9661  33.9129  34.4487  38.4756  39.3767  40.8819  41.7320
    42.2886  43.3454  45.2013  46.6920  48.2641  49.0067  49.2716  50.6524
    51.1951  51.3911  51.7816  52.9156  53.3414  53.8839  55.3368  56.3166
    57.4396  58.3808  59.0064  60.0507  60.4503  61.6242  61.8461  63.0114
    63.7169  64.7454  64.9484  66.1528  66.7242  67.0786  67.6246  68.5101
    69.1941  69.9267  71.4393  71.9011  74.2413  74.9634

     occupation numbers 
     1.0000   1.0000   1.0000   1.0000   0.0000   0.0000   0.0000   0.0000
     0.0000   0.0000   0.0000   0.0000   0.0000   0.0000   0.0000   0.0000
     0.0000   0.0000   0.0000   0.0000   0.0000   0.0000   0.0000   0.0000
     0.0000   0.0000   0.0000   0.0000   0.0000   0.0000   0.0000   0.0000
     0.0000   0.0000   0.0000   0.0000   0.0000   0.0000   0.0000   0.0000
     0.0000   0.0000   0.0000   0.0000   0.0000   0.0000   0.0000   0.0000
     0.0000   0.0000   0.0000   0.0000   0.0000   0.0000   0.0000   0.0000
     0.0000   0.0000   0.0000   0.0000   0.0000   0.0000   0.0000   0.0000
     0.0000   0.0000   0.0000   0.0000   0.0000   0.0000

          k =-0.0000-0.3536 0.6364 (  2953 PWs)   bands (ev):

    -5.4359  -1.6699   1.1820   1.8731   9.1928   9.9790  10.4559  11.5324
    15.4018  17.0980  18.4512  19.6262  21.3952  22.2914  23.9190  24.0361
    24.8854  26.2645  26.7096  28.2398  29.5073  30.7599  31.3197  32.1654
    32.6181  33.1105  34.0114  34.2355  37.7803  39.7623  40.5438  41.8423
    42.5742  43.4816  45.3844  46.8436  47.9134  48.7645  49.5135  50.6116
    51.0259  51.3180  51.6695  52.3476  53.5693  54.2771  55.9573  56.7040
    57.5517  57.8917  58.6833  60.1263  60.2856  61.5001  62.0589  63.1323
    63.7276  64.4613  65.0445  65.6713  65.8550  66.9727  67.2741  69.5280
    69.9503  70.3196  71.4965  72.0540  73.8622  74.4231

     occupation numbers 
     1.0000   1.0000   1.0000   1.0000   0.0000   0.0000   0.0000   0.0000
     0.0000   0.0000   0.0000   0.0000   0.0000   0.0000   0.0000   0.0000
     0.0000   0.0000   0.0000   0.0000   0.0000   0.0000   0.0000   0.0000
     0.0000   0.0000   0.0000   0.0000   0.0000   0.0000   0.0000   0.0000
     0.0000   0.0000   0.0000   0.0000   0.0000   0.0000   0.0000   0.0000
     0.0000   0.0000   0.0000   0.0000   0.0000   0.0000   0.0000   0.0000
     0.0000   0.0000   0.0000   0.0000   0.0000   0.0000   0.0000   0.0000
     0.0000   0.0000   0.0000   0.0000   0.0000   0.0000   0.0000   0.0000
     0.0000   0.0000   0.0000   0.0000   0.0000   0.0000

          k =-0.7071 0.2828 0.0000 (  2946 PWs)   bands (ev):

    -5.3882  -1.7368   1.4250   1.6281   8.9062   9.0762  11.4575  11.7122
    15.9887  17.4137  18.3105  19.1085  22.1132  23.0879  23.1963  23.6841
    24.1917  25.0946  27.8731  28.4202  29.5790  30.0488  30.8685  30.9894
    33.2042  33.7839  34.1467  34.9978  39.0487  39.6682  40.4814  41.4611
    42.2932  42.7044  45.5674  46.1379  48.0562  49.0835  49.4501  49.4681
    51.7746  52.0302  52.9236  52.9338  53.5774  54.1721  54.3718  55.2174
    56.9287  58.8549  58.8769  60.4944  61.1492  61.3691  61.8886  62.5740
    63.5364  65.5724  65.7653  66.3924  66.7907  66.8676  67.7160  68.8032
    68.8504  69.8883  71.1055  71.1298  73.6504  74.2236

     occupation numbers 
     1.0000   1.0000   1.0000   1.0000   0.0000   0.0000   0.0000   0.0000
     0.0000   0.0000   0.0000   0.0000   0.0000   0.0000   0.0000   0.0000
     0.0000   0.0000   0.0000   0.0000   0.0000   0.0000   0.0000   0.0000
     0.0000   0.0000   0.0000   0.0000   0.0000   0.0000   0.0000   0.0000
     0.0000   0.0000   0.0000   0.0000   0.0000   0.0000   0.0000   0.0000
     0.0000   0.0000   0.0000   0.0000   0.0000   0.0000   0.0000   0.0000
     0.0000   0.0000   0.0000   0.0000   0.0000   0.0000   0.0000   0.0000
     0.0000   0.0000   0.0000   0.0000   0.0000   0.0000   0.0000   0.0000
     0.0000   0.0000   0.0000   0.0000   0.0000   0.0000

          k =-0.7071 0.3536 0.0000 (  2936 PWs)   bands (ev):

    -5.3836  -1.7134   1.3466   1.5724   9.6472   9.7037  10.6290  11.0179
    16.0024  17.4080  18.2965  19.1520  22.0007  23.0154  23.2554  23.6703
    24.4495  26.1043  26.7417  28.6757  29.9730  29.9843  32.1483  32.4279
    32.5834  32.8519  32.9062  33.6240  39.3678  39.8932  40.3004  41.2910
    42.7778  43.0975  44.5938  47.4308  48.3259  49.1031  50.5117  51.0247
    51.0450  51.2409  51.5909  51.6241  53.6855  53.7645  54.1699  57.1023
    58.0053  58.3990  59.5947  59.8747  60.4662  60.5729  61.8705  62.8036
    64.0109  64.7076  65.3833  67.1583  67.3032  67.5163  67.5357  67.6646
    68.0130  68.7795  70.5626  72.5334  75.1395  75.7070

     occupation numbers 
     1.0000   1.0000   1.0000   1.0000   0.0000   0.0000   0.0000   0.0000
     0.0000   0.0000   0.0000   0.0000   0.0000   0.0000   0.0000   0.0000
     0.0000   0.0000   0.0000   0.0000   0.0000   0.0000   0.0000   0.0000
     0.0000   0.0000   0.0000   0.0000   0.0000   0.0000   0.0000   0.0000
     0.0000   0.0000   0.0000   0.0000   0.0000   0.0000   0.0000   0.0000
     0.0000   0.0000   0.0000   0.0000   0.0000   0.0000   0.0000   0.0000
     0.0000   0.0000   0.0000   0.0000   0.0000   0.0000   0.0000   0.0000
     0.0000   0.0000   0.0000   0.0000   0.0000   0.0000   0.0000   0.0000
     0.0000   0.0000   0.0000   0.0000   0.0000   0.0000

     highest occupied, lowest unoccupied level (ev):     5.0027    5.8020

     Writing output data file run_output/GaAs.save/

     init_run     :      0.02s CPU      0.04s WALL (       1 calls)
     electrons    :     97.95s CPU    101.44s WALL (       1 calls)

     Called by init_run:
     wfcinit      :      0.00s CPU      0.01s WALL (       1 calls)
     wfcinit:atom :      0.01s CPU      0.01s WALL (     256 calls)
     wfcinit:wfcr :      7.04s CPU      7.14s WALL (     256 calls)
     potinit      :      0.00s CPU      0.01s WALL (       1 calls)
     hinit0       :      0.01s CPU      0.01s WALL (       1 calls)

     Called by electrons:
     c_bands      :     97.92s CPU    101.37s WALL (       1 calls)
     v_of_rho     :      0.00s CPU      0.00s WALL (       1 calls)
     v_h          :      0.00s CPU      0.00s WALL (       1 calls)
     v_xc         :      0.00s CPU      0.00s WALL (       1 calls)

     Called by c_bands:
     init_us_2    :      0.01s CPU      0.01s WALL (     256 calls)
     cegterg      :     87.51s CPU     88.85s WALL (     273 calls)

     Called by sum_band:

     Called by *egterg:
     cdiaghg      :     43.66s CPU     43.71s WALL (    4651 calls)
     cegterg:over :      7.31s CPU      7.84s WALL (    4395 calls)
     cegterg:upda :      3.29s CPU      3.30s WALL (    4395 calls)
     cegterg:last :      6.38s CPU      6.35s WALL (    2070 calls)
     h_psi        :     31.16s CPU     32.00s WALL (    4924 calls)
     g_psi        :      0.09s CPU      0.08s WALL (    4395 calls)

     Called by h_psi:
     h_psi:calbec :      0.71s CPU      0.69s WALL (    4924 calls)
     vloc_psi     :     30.07s CPU     30.89s WALL (    4924 calls)
     add_vuspsi   :      0.35s CPU      0.38s WALL (    4924 calls)

     General routines
     calbec       :      0.71s CPU      0.68s WALL (    4924 calls)
     fft          :      0.00s CPU      0.00s WALL (       4 calls)
     fftw         :     29.14s CPU     29.84s WALL (  333490 calls)
     davcio       :      0.01s CPU      2.77s WALL (     512 calls)

     Parallel routines
     fft_scatt_xy :      1.21s CPU      1.42s WALL (  333494 calls)
     fft_scatt_yz :     14.80s CPU     14.92s WALL (  333494 calls)

     PWSCF        :   1m46.21s CPU   2m 8.69s WALL


   This run was terminated on:  15:51:18  29Apr2021            

=------------------------------------------------------------------------------=
   JOB DONE.
=------------------------------------------------------------------------------=
