
     Program PWSCF v.6.7MaX starts on  6May2021 at 19:20:11 

     This program is part of the open-source Quantum ESPRESSO suite
     for quantum simulation of materials; please cite
         "P. Giannozzi et al., J. Phys.:Condens. Matter 21 395502 (2009);
         "P. Giannozzi et al., J. Phys.:Condens. Matter 29 465901 (2017);
          URL http://www.quantum-espresso.org", 
     in publications or presentations arising from this work. More details at
     http://www.quantum-espresso.org/quote

     Parallel version (MPI), running on    28 processors

     MPI processes distributed on     1 nodes
     R & G space division:  proc/nbgrp/npool/nimage =      28
     Waiting for input...
     Reading input from standard input

     Current dimensions of program PWSCF are:
     Max number of different atomic species (ntypx) = 10
     Max number of k-points (npk) =  40000
     Max angular momentum in pseudopotentials (lmaxx) =  3

     Atomic positions and unit cell read from directory:
     run_output/MoS2.save/
     Atomic positions from file used, from input discarded


     Subspace diagonalization in iterative solution of the eigenvalue problem:
     a serial algorithm will be used


     Parallelization info
     --------------------
     sticks:   dense  smooth     PW     G-vecs:    dense   smooth      PW
     Min          20      20      5                 2014     2014     309
     Max          21      21      6                 2027     2027     334
     Sum         583     583    163                56613    56613    9123



     bravais-lattice index     =            4
     lattice parameter (alat)  =       5.8772  a.u.
     unit-cell volume          =     897.4163 (a.u.)^3
     number of atoms/cell      =            3
     number of atomic types    =            2
     number of electrons       =        26.00
     number of Kohn-Sham states=           50
     kinetic-energy cutoff     =      60.0000  Ry
     charge density cutoff     =     240.0000  Ry
     Exchange-correlation= SLA-PZ-NOGX-NOGC
                           (   1   1   0   0   0   0   0)

     celldm(1)=   5.877208  celldm(2)=   0.000000  celldm(3)=   5.104465
     celldm(4)=   0.000000  celldm(5)=   0.000000  celldm(6)=   0.000000

     crystal axes: (cart. coord. in units of alat)
               a(1) = (   1.000000   0.000000   0.000000 )  
               a(2) = (  -0.500000   0.866025   0.000000 )  
               a(3) = (   0.000000   0.000000   5.104465 )  

     reciprocal axes: (cart. coord. in units 2 pi/alat)
               b(1) = (  1.000000  0.577350 -0.000000 )  
               b(2) = (  0.000000  1.154701  0.000000 )  
               b(3) = (  0.000000 -0.000000  0.195907 )  


     PseudoPot. # 1 for Mo read from file:
     PPs/Mo_SR_withPS_PZ.UPF
     MD5 check sum: 19bf02b7f08077cf8574869525df176e
     Pseudo is Norm-conserving + core correction, Zval = 14.0
     Generated using "atomic" code by A. Dal Corso  (Quantum ESPRESSO distribution)
     Using radial grid of 1229 points,  5 beta functions with: 
                l(1) =   0
                l(2) =   0
                l(3) =   1
                l(4) =   2
                l(5) =   2

     PseudoPot. # 2 for S  read from file:
     PPs/S.pz-hgh.UPF
     MD5 check sum: fb24c143a2a3ea3aba309d3cb9e9e6ec
     Pseudo is Norm-conserving, Zval =  6.0
     Generated in analytical, separable form
     Using radial grid of 1151 points,  3 beta functions with: 
                l(1) =   0
                l(2) =   0
                l(3) =   1

     atomic species   valence    mass     pseudopotential
        Mo            14.00    95.94000     Mo( 1.00)
        S              6.00    32.06500     S ( 1.00)

     Starting magnetic structure 
     atomic species   magnetization
        Mo          -0.100
        S            0.100

     12 Sym. Ops. (no inversion) found


                                    s                        frac. trans.

      isym =  1     identity                                     

 cryst.   s( 1) = (     1          0          0      )
                  (     0          1          0      )
                  (     0          0          1      )

 cart.    s( 1) = (  1.0000000  0.0000000  0.0000000 )
                  (  0.0000000  1.0000000  0.0000000 )
                  (  0.0000000  0.0000000  1.0000000 )


      isym =  2     180 deg rotation - cart. axis [0,1,0]        

 cryst.   s( 2) = (    -1          0          0      )
                  (     1          1          0      )
                  (     0          0         -1      )

 cart.    s( 2) = ( -1.0000000  0.0000000  0.0000000 )
                  (  0.0000000  1.0000000  0.0000000 )
                  (  0.0000000  0.0000000 -1.0000000 )


      isym =  3     120 deg rotation - cryst. axis [0,0,1]       

 cryst.   s( 3) = (     0          1          0      )
                  (    -1         -1          0      )
                  (     0          0          1      )

 cart.    s( 3) = ( -0.5000000 -0.8660254  0.0000000 )
                  (  0.8660254 -0.5000000  0.0000000 )
                  (  0.0000000  0.0000000  1.0000000 )


      isym =  4     120 deg rotation - cryst. axis [0,0,-1]      

 cryst.   s( 4) = (    -1         -1          0      )
                  (     1          0          0      )
                  (     0          0          1      )

 cart.    s( 4) = ( -0.5000000  0.8660254  0.0000000 )
                  ( -0.8660254 -0.5000000  0.0000000 )
                  (  0.0000000  0.0000000  1.0000000 )


      isym =  5     180 deg rotation - cryst. axis [1,-1,0]      

 cryst.   s( 5) = (     0         -1          0      )
                  (    -1          0          0      )
                  (     0          0         -1      )

 cart.    s( 5) = (  0.5000000 -0.8660254  0.0000000 )
                  ( -0.8660254 -0.5000000  0.0000000 )
                  (  0.0000000  0.0000000 -1.0000000 )


      isym =  6     180 deg rotation - cryst. axis [2,1,0]       

 cryst.   s( 6) = (     1          1          0      )
                  (     0         -1          0      )
                  (     0          0         -1      )

 cart.    s( 6) = (  0.5000000  0.8660254  0.0000000 )
                  (  0.8660254 -0.5000000  0.0000000 )
                  (  0.0000000  0.0000000 -1.0000000 )


      isym =  7     inv. 180 deg rotation - cart. axis [0,0,1]   

 cryst.   s( 7) = (     1          0          0      )
                  (     0          1          0      )
                  (     0          0         -1      )

 cart.    s( 7) = (  1.0000000  0.0000000  0.0000000 )
                  (  0.0000000  1.0000000  0.0000000 )
                  (  0.0000000  0.0000000 -1.0000000 )


      isym =  8     inv. 180 deg rotation - cart. axis [1,0,0]   

 cryst.   s( 8) = (    -1          0          0      )
                  (     1          1          0      )
                  (     0          0          1      )

 cart.    s( 8) = ( -1.0000000  0.0000000  0.0000000 )
                  (  0.0000000  1.0000000  0.0000000 )
                  (  0.0000000  0.0000000  1.0000000 )


      isym =  9     inv.  60 deg rotation - cryst. axis [0,0,1]  

 cryst.   s( 9) = (    -1         -1          0      )
                  (     1          0          0      )
                  (     0          0         -1      )

 cart.    s( 9) = ( -0.5000000  0.8660254  0.0000000 )
                  ( -0.8660254 -0.5000000  0.0000000 )
                  (  0.0000000  0.0000000 -1.0000000 )


      isym = 10     inv.  60 deg rotation - cryst. axis [0,0,-1] 

 cryst.   s(10) = (     0          1          0      )
                  (    -1         -1          0      )
                  (     0          0         -1      )

 cart.    s(10) = ( -0.5000000 -0.8660254  0.0000000 )
                  (  0.8660254 -0.5000000  0.0000000 )
                  (  0.0000000  0.0000000 -1.0000000 )


      isym = 11     inv. 180 deg rotation - cryst. axis [0,1,0]  

 cryst.   s(11) = (     1          1          0      )
                  (     0         -1          0      )
                  (     0          0          1      )

 cart.    s(11) = (  0.5000000  0.8660254  0.0000000 )
                  (  0.8660254 -0.5000000  0.0000000 )
                  (  0.0000000  0.0000000  1.0000000 )


      isym = 12     inv. 180 deg rotation - cryst. axis [1,1,0]  

 cryst.   s(12) = (     0         -1          0      )
                  (    -1          0          0      )
                  (     0          0          1      )

 cart.    s(12) = (  0.5000000 -0.8660254  0.0000000 )
                  ( -0.8660254 -0.5000000  0.0000000 )
                  (  0.0000000  0.0000000  1.0000000 )


     point group D_3h (-62m)
     there are  6 classes
     the character table:

       E     2C3   3C2   s_h   2S3   3s_v 
A'_1   1.00  1.00  1.00  1.00  1.00  1.00
A'_2   1.00  1.00 -1.00  1.00  1.00 -1.00
E'     2.00 -1.00  0.00  2.00 -1.00  0.00
A''1   1.00  1.00  1.00 -1.00 -1.00 -1.00
A''2   1.00  1.00 -1.00 -1.00 -1.00  1.00
E''    2.00 -1.00  0.00 -2.00  1.00  0.00

     the symmetry operations in each class and the name of the first element:

     E        1
          identity                                               
     2C3      3    4
          120 deg rotation - cryst. axis [0,0,1]                 
     3C2      2    6    5
          180 deg rotation - cart. axis [0,1,0]                  
     s_h      7
          inv. 180 deg rotation - cart. axis [0,0,1]             
     2S3      9   10
          inv.  60 deg rotation - cryst. axis [0,0,1]            
     3s_v     8   11   12
          inv. 180 deg rotation - cart. axis [1,0,0]             

   Cartesian axes

     site n.     atom                  positions (alat units)
         1           Mo  tau(   1) = (  -0.0000000   0.5773503   0.0000000  )
         2           S   tau(   2) = (   0.5000000   0.2886751   0.4991315  )
         3           S   tau(   3) = (   0.5000000   0.2886751  -0.4991315  )

   Crystallographic axes

     site n.     atom                  positions (cryst. coord.)
         1           Mo  tau(   1) = (  0.3333333  0.6666667  0.0000000  )
         2           S   tau(   2) = (  0.6666667  0.3333333  0.0977833  )
         3           S   tau(   3) = (  0.6666667  0.3333333 -0.0977833  )

     number of k points=    19  Gaussian smearing, width (Ry)=  0.0017
                       cart. coord. in units 2pi/alat
        k(    1) = (   0.0000000   0.0000000   0.0000000), wk =   0.0069444
        k(    2) = (   0.0000000   0.0962250   0.0000000), wk =   0.0416667
        k(    3) = (   0.0000000   0.1924501   0.0000000), wk =   0.0416667
        k(    4) = (   0.0000000   0.2886751   0.0000000), wk =   0.0416667
        k(    5) = (   0.0000000   0.3849002   0.0000000), wk =   0.0416667
        k(    6) = (   0.0000000   0.4811252   0.0000000), wk =   0.0416667
        k(    7) = (   0.0000000  -0.5773503   0.0000000), wk =   0.0208333
        k(    8) = (   0.0833333   0.1443376   0.0000000), wk =   0.0416667
        k(    9) = (   0.0833333   0.2405626   0.0000000), wk =   0.0833333
        k(   10) = (   0.0833333   0.3367877   0.0000000), wk =   0.0833333
        k(   11) = (   0.0833333   0.4330127   0.0000000), wk =   0.0833333
        k(   12) = (   0.0833333   0.5292377   0.0000000), wk =   0.0833333
        k(   13) = (   0.1666667   0.2886751   0.0000000), wk =   0.0416667
        k(   14) = (   0.1666667   0.3849002   0.0000000), wk =   0.0833333
        k(   15) = (   0.1666667   0.4811252   0.0000000), wk =   0.0833333
        k(   16) = (   0.1666667   0.5773503   0.0000000), wk =   0.0416667
        k(   17) = (   0.2500000   0.4330127   0.0000000), wk =   0.0416667
        k(   18) = (   0.2500000   0.5292377   0.0000000), wk =   0.0833333
        k(   19) = (   0.3333333   0.5773503   0.0000000), wk =   0.0138889

                       cryst. coord.
        k(    1) = (   0.0000000   0.0000000   0.0000000), wk =   0.0069444
        k(    2) = (   0.0000000   0.0833333   0.0000000), wk =   0.0416667
        k(    3) = (   0.0000000   0.1666667   0.0000000), wk =   0.0416667
        k(    4) = (   0.0000000   0.2500000   0.0000000), wk =   0.0416667
        k(    5) = (   0.0000000   0.3333333   0.0000000), wk =   0.0416667
        k(    6) = (   0.0000000   0.4166667   0.0000000), wk =   0.0416667
        k(    7) = (   0.0000000  -0.5000000   0.0000000), wk =   0.0208333
        k(    8) = (   0.0833333   0.0833333   0.0000000), wk =   0.0416667
        k(    9) = (   0.0833333   0.1666667   0.0000000), wk =   0.0833333
        k(   10) = (   0.0833333   0.2500000   0.0000000), wk =   0.0833333
        k(   11) = (   0.0833333   0.3333333   0.0000000), wk =   0.0833333
        k(   12) = (   0.0833333   0.4166667   0.0000000), wk =   0.0833333
        k(   13) = (   0.1666667   0.1666667   0.0000000), wk =   0.0416667
        k(   14) = (   0.1666667   0.2500000   0.0000000), wk =   0.0833333
        k(   15) = (   0.1666667   0.3333333   0.0000000), wk =   0.0833333
        k(   16) = (   0.1666667   0.4166667   0.0000000), wk =   0.0416667
        k(   17) = (   0.2500000   0.2500000   0.0000000), wk =   0.0416667
        k(   18) = (   0.2500000   0.3333333   0.0000000), wk =   0.0833333
        k(   19) = (   0.3333333   0.3333333   0.0000000), wk =   0.0138889

     Dense  grid:    56613 G-vectors     FFT dimensions: (  30,  30, 150)

     Dynamical RAM for                 wfc:       0.19 MB

     Dynamical RAM for     wfc (w. buffer):       0.19 MB

     Dynamical RAM for           str. fact:       0.06 MB

     Dynamical RAM for           local pot:       0.00 MB

     Dynamical RAM for          nlocal pot:       0.10 MB

     Dynamical RAM for                qrad:       1.78 MB

     Dynamical RAM for          rho,v,vnew:       0.43 MB

     Dynamical RAM for           G-vectors:       0.13 MB

     Dynamical RAM for          h,s,v(r/c):       1.83 MB

     Dynamical RAM for          <psi|beta>:       0.02 MB

     Dynamical RAM for                 psi:       0.77 MB

     Dynamical RAM for                hpsi:       0.77 MB

     Dynamical RAM for      wfcinit/wfcrot:       0.44 MB

     Estimated static dynamical RAM per process >       3.03 MB

     Estimated max dynamical RAM per process >       6.41 MB

     Estimated total dynamical RAM >     179.49 MB

     Check: negative core charge=   -0.000110
     Generating pointlists ...
     new r_m :   0.3148 (alat units)  1.8502 (a.u.) for type    1
     new r_m :   0.3148 (alat units)  1.8502 (a.u.) for type    2

     The potential is recalculated from file :
     run_output/MoS2.save/charge-density

     Starting wfcs are   28 randomized atomic wfcs +   22 random wfcs

     Band Structure Calculation
     Davidson diagonalization with overlap

     Computing kpt #:     1  of    38
     total cpu time spent up to now is        0.9 secs

     Computing kpt #:     2  of    38
     total cpu time spent up to now is        1.2 secs

     Computing kpt #:     3  of    38
     total cpu time spent up to now is        1.6 secs

     Computing kpt #:     4  of    38
     total cpu time spent up to now is        1.9 secs

     Computing kpt #:     5  of    38
     total cpu time spent up to now is        2.3 secs

     Computing kpt #:     6  of    38
     total cpu time spent up to now is        2.7 secs

     Computing kpt #:     7  of    38
     total cpu time spent up to now is        3.0 secs

     Computing kpt #:     8  of    38
     total cpu time spent up to now is        3.4 secs

     Computing kpt #:     9  of    38
     total cpu time spent up to now is        3.8 secs

     Computing kpt #:    10  of    38
     total cpu time spent up to now is        4.1 secs

     Computing kpt #:    11  of    38
     total cpu time spent up to now is        4.5 secs

     Computing kpt #:    12  of    38
     total cpu time spent up to now is        4.9 secs

     Computing kpt #:    13  of    38
     total cpu time spent up to now is        5.2 secs

     Computing kpt #:    14  of    38
     total cpu time spent up to now is        5.6 secs

     Computing kpt #:    15  of    38
     total cpu time spent up to now is        6.0 secs

     Computing kpt #:    16  of    38
     total cpu time spent up to now is        6.4 secs

     Computing kpt #:    17  of    38
     total cpu time spent up to now is        6.7 secs

     Computing kpt #:    18  of    38
     total cpu time spent up to now is        7.1 secs

     Computing kpt #:    19  of    38
     total cpu time spent up to now is        7.5 secs

     Computing kpt #:    20  of    38
     total cpu time spent up to now is        8.1 secs

     Computing kpt #:    21  of    38
     total cpu time spent up to now is        8.5 secs

     Computing kpt #:    22  of    38
     total cpu time spent up to now is        8.8 secs

     Computing kpt #:    23  of    38
     total cpu time spent up to now is        9.2 secs

     Computing kpt #:    24  of    38
     total cpu time spent up to now is        9.6 secs

     Computing kpt #:    25  of    38
     total cpu time spent up to now is        9.9 secs

     Computing kpt #:    26  of    38
     total cpu time spent up to now is       10.3 secs

     Computing kpt #:    27  of    38
     total cpu time spent up to now is       10.6 secs

     Computing kpt #:    28  of    38
     total cpu time spent up to now is       11.0 secs

     Computing kpt #:    29  of    38
     total cpu time spent up to now is       11.4 secs

     Computing kpt #:    30  of    38
     total cpu time spent up to now is       11.7 secs

     Computing kpt #:    31  of    38
     total cpu time spent up to now is       12.1 secs

     Computing kpt #:    32  of    38
     total cpu time spent up to now is       12.4 secs

     Computing kpt #:    33  of    38
     total cpu time spent up to now is       12.8 secs

     Computing kpt #:    34  of    38
     total cpu time spent up to now is       13.2 secs

     Computing kpt #:    35  of    38
     total cpu time spent up to now is       13.6 secs

     Computing kpt #:    36  of    38
     total cpu time spent up to now is       13.9 secs

     Computing kpt #:    37  of    38
     total cpu time spent up to now is       14.4 secs

     Computing kpt #:    38  of    38
     total cpu time spent up to now is       14.7 secs

     ethr =  5.00E-06,  avg # of iterations = 14.9

     total cpu time spent up to now is       14.7 secs

     End of band structure calculation

 ------ SPIN UP ------------


          k = 0.0000 0.0000 0.0000 (  7087 PWs)   bands (ev):

   -59.9065 -34.4628 -34.0544 -34.0544 -13.9408 -12.5655  -5.4748  -2.2081
    -2.2081  -1.5613  -1.0636  -1.0636   0.2317   3.3550   3.3550   3.6498
     3.6498   5.1016   5.7676   6.6081   7.1381   8.6593   9.5525  10.4457
    11.2625  11.2625  13.2807  13.2807  13.4449  13.5244  15.4461  16.6861
    16.6861  16.6955  17.1135  17.1135  18.9608  19.6603  20.5579  21.2825
    23.8326  23.8326  25.3117  25.3140  25.3140  25.6271  25.7105  25.7105
    25.7223  26.0412

     occupation numbers 
     1.0000   1.0000   1.0000   1.0000   1.0000   1.0000   1.0000   1.0000
     1.0000   1.0000   1.0000   1.0000   1.0000   0.0000   0.0000   0.0000
     0.0000   0.0000   0.0000   0.0000   0.0000   0.0000   0.0000   0.0000
     0.0000   0.0000   0.0000   0.0000   0.0000   0.0000   0.0000   0.0000
     0.0000   0.0000   0.0000   0.0000   0.0000   0.0000   0.0000   0.0000
     0.0000   0.0000   0.0000   0.0000   0.0000   0.0000   0.0000   0.0000
     0.0000   0.0000

          k = 0.0000 0.0962 0.0000 (  7065 PWs)   bands (ev):

   -59.9015 -34.4559 -34.0878 -34.0618 -13.8269 -12.5193  -5.3483  -2.4541
    -2.0894  -2.0184  -1.2434  -0.7791   0.1989   3.2022   3.3113   3.5221
     3.5521   5.2611   5.9109   6.8840   7.5377   8.7846  10.0367  10.4420
    11.1132  11.6155  12.4781  13.3159  13.4251  13.6456  15.4467  16.0051
    16.7387  16.8902  17.0994  17.7307  19.3641  19.9563  21.2312  21.4111
    22.5066  22.7208  23.5255  23.8882  24.1237  24.3471  24.3857  24.6615
    24.7462  25.4204

     occupation numbers 
     1.0000   1.0000   1.0000   1.0000   1.0000   1.0000   1.0000   1.0000
     1.0000   1.0000   1.0000   1.0000   1.0000   0.0000   0.0000   0.0000
     0.0000   0.0000   0.0000   0.0000   0.0000   0.0000   0.0000   0.0000
     0.0000   0.0000   0.0000   0.0000   0.0000   0.0000   0.0000   0.0000
     0.0000   0.0000   0.0000   0.0000   0.0000   0.0000   0.0000   0.0000
     0.0000   0.0000   0.0000   0.0000   0.0000   0.0000   0.0000   0.0000
     0.0000   0.0000

          k = 0.0000 0.1925 0.0000 (  7045 PWs)   bands (ev):

   -59.8904 -34.4374 -34.1787 -34.0821 -13.5023 -12.3878  -5.0349  -3.0086
    -2.6984  -1.7594  -1.6637  -0.7051   0.0069   2.7699   3.1296   3.2330
     3.9971   5.6928   6.3276   7.3284   8.6339   9.1099  10.2234  10.5479
    11.1732  11.8437  12.5574  13.0471  13.5187  13.7743  15.2332  15.3088
    15.8408  17.3122  17.3815  19.4696  19.4919  19.8872  20.3959  20.7898
    20.9495  21.9286  22.1698  22.8408  22.8637  23.0438  23.2827  23.7292
    24.0497  24.1445

     occupation numbers 
     1.0000   1.0000   1.0000   1.0000   1.0000   1.0000   1.0000   1.0000
     1.0000   1.0000   1.0000   1.0000   1.0000   0.0000   0.0000   0.0000
     0.0000   0.0000   0.0000   0.0000   0.0000   0.0000   0.0000   0.0000
     0.0000   0.0000   0.0000   0.0000   0.0000   0.0000   0.0000   0.0000
     0.0000   0.0000   0.0000   0.0000   0.0000   0.0000   0.0000   0.0000
     0.0000   0.0000   0.0000   0.0000   0.0000   0.0000   0.0000   0.0000
     0.0000   0.0000

          k = 0.0000 0.2887 0.0000 (  7009 PWs)   bands (ev):

   -59.8747 -34.4125 -34.2998 -34.1099 -13.0194 -12.1940  -4.8279  -3.4616
    -3.3958  -2.1310  -1.3011  -0.9830  -0.4113   2.5980   2.9648   3.4591
     4.4449   6.3740   6.9724   7.8292   9.1445   9.1636  10.1451  10.2454
    11.5666  12.3947  12.7555  13.6031  13.9208  14.0407  14.9246  15.0186
    15.5641  16.8264  17.4783  17.9056  17.9205  18.7703  19.8642  20.6274
    21.3178  21.6865  21.7626  21.7828  22.2101  22.4822  22.8032  22.8204
    22.8954  23.9361

     occupation numbers 
     1.0000   1.0000   1.0000   1.0000   1.0000   1.0000   1.0000   1.0000
     1.0000   1.0000   1.0000   1.0000   1.0000   0.0000   0.0000   0.0000
     0.0000   0.0000   0.0000   0.0000   0.0000   0.0000   0.0000   0.0000
     0.0000   0.0000   0.0000   0.0000   0.0000   0.0000   0.0000   0.0000
     0.0000   0.0000   0.0000   0.0000   0.0000   0.0000   0.0000   0.0000
     0.0000   0.0000   0.0000   0.0000   0.0000   0.0000   0.0000   0.0000
     0.0000   0.0000

          k = 0.0000 0.3849 0.0000 (  7036 PWs)   bands (ev):

   -59.8630 -34.4208 -34.3874 -34.1379 -12.4722 -11.9798  -5.0963  -4.0398
    -3.5782  -2.5222  -1.3139  -0.8536  -0.6510   2.8170   2.8589   3.9475
     4.7574   7.2539   7.6759   8.2258   8.5703   8.7592  10.2282  10.4953
    11.9686  12.1151  13.0919  13.3534  14.4703  14.6757  14.8767  15.0459
    15.5420  15.9459  16.6879  16.7283  18.1861  18.3288  18.6424  20.2748
    20.4913  20.9151  21.1111  21.4179  21.9447  21.9673  22.1093  22.5257
    22.9468  23.9180

     occupation numbers 
     1.0000   1.0000   1.0000   1.0000   1.0000   1.0000   1.0000   1.0000
     1.0000   1.0000   1.0000   1.0000   1.0000   0.0000   0.0000   0.0000
     0.0000   0.0000   0.0000   0.0000   0.0000   0.0000   0.0000   0.0000
     0.0000   0.0000   0.0000   0.0000   0.0000   0.0000   0.0000   0.0000
     0.0000   0.0000   0.0000   0.0000   0.0000   0.0000   0.0000   0.0000
     0.0000   0.0000   0.0000   0.0000   0.0000   0.0000   0.0000   0.0000
     0.0000   0.0000

          k = 0.0000 0.4811 0.0000 (  7054 PWs)   bands (ev):

   -59.8544 -34.5080 -34.3692 -34.1580 -12.0094 -11.8065  -5.4998  -4.5116
    -3.7373  -2.7753  -1.5229  -0.5565  -0.4356   2.9242   3.1955   4.2765
     4.9197   7.1707   8.0168   8.2547   9.1045   9.1082  10.4214  10.5455
    11.7488  12.1247  12.2247  12.3485  13.5900  13.9616  15.0218  15.5600
    15.7534  16.5136  17.2616  17.3233  18.1660  18.5821  18.7144  19.6094
    19.6592  20.4280  20.7421  21.2585  21.4753  21.6169  21.7919  22.0070
    23.0155  23.4746

     occupation numbers 
     1.0000   1.0000   1.0000   1.0000   1.0000   1.0000   1.0000   1.0000
     1.0000   1.0000   1.0000   1.0000   1.0000   0.0000   0.0000   0.0000
     0.0000   0.0000   0.0000   0.0000   0.0000   0.0000   0.0000   0.0000
     0.0000   0.0000   0.0000   0.0000   0.0000   0.0000   0.0000   0.0000
     0.0000   0.0000   0.0000   0.0000   0.0000   0.0000   0.0000   0.0000
     0.0000   0.0000   0.0000   0.0000   0.0000   0.0000   0.0000   0.0000
     0.0000   0.0000

          k = 0.0000-0.5774 0.0000 (  7056 PWs)   bands (ev):

   -59.8509 -34.5393 -34.3624 -34.1655 -11.8211 -11.7387  -5.6758  -4.6865
    -3.8413  -2.8624  -1.5898  -0.4597  -0.2468   2.9895   3.4226   4.3675
     4.9674   6.6176   8.1623   8.6770   9.3573   9.9258  10.4431  10.6765
    10.7679  11.8483  11.8708  12.4139  13.0412  13.3106  15.2297  15.6218
    16.1501  16.3462  17.5351  17.9239  18.5640  18.6899  18.9774  19.5842
    19.6401  20.3264  20.6915  20.8541  21.3636  21.4906  21.6522  21.7450
    22.7271  23.2623

     occupation numbers 
     1.0000   1.0000   1.0000   1.0000   1.0000   1.0000   1.0000   1.0000
     1.0000   1.0000   1.0000   1.0000   1.0000   0.0000   0.0000   0.0000
     0.0000   0.0000   0.0000   0.0000   0.0000   0.0000   0.0000   0.0000
     0.0000   0.0000   0.0000   0.0000   0.0000   0.0000   0.0000   0.0000
     0.0000   0.0000   0.0000   0.0000   0.0000   0.0000   0.0000   0.0000
     0.0000   0.0000   0.0000   0.0000   0.0000   0.0000   0.0000   0.0000
     0.0000   0.0000

          k = 0.0833 0.1443 0.0000 (  7059 PWs)   bands (ev):

   -59.8944 -34.4436 -34.1482 -34.0774 -13.6075 -12.4303  -5.1241  -2.8465
    -2.4711  -1.8744  -1.6635  -0.5787   0.0872   2.8997   3.0395   3.2930
     3.9146   5.5540   6.1924   7.2182   8.3479   9.0190  10.3141  10.6723
    11.0989  11.7211  12.1482  13.1830  13.2952  13.9266  15.3694  15.5932
    15.9390  17.0143  17.3915  19.0719  20.0798  20.4220  20.7838  21.0799
    21.2325  21.5641  21.6049  22.6906  22.8294  23.1141  23.5680  24.1585
    24.4613  24.8855

     occupation numbers 
     1.0000   1.0000   1.0000   1.0000   1.0000   1.0000   1.0000   1.0000
     1.0000   1.0000   1.0000   1.0000   1.0000   0.0000   0.0000   0.0000
     0.0000   0.0000   0.0000   0.0000   0.0000   0.0000   0.0000   0.0000
     0.0000   0.0000   0.0000   0.0000   0.0000   0.0000   0.0000   0.0000
     0.0000   0.0000   0.0000   0.0000   0.0000   0.0000   0.0000   0.0000
     0.0000   0.0000   0.0000   0.0000   0.0000   0.0000   0.0000   0.0000
     0.0000   0.0000

          k = 0.0833 0.2406 0.0000 (  7034 PWs)   bands (ev):

   -59.8812 -34.4217 -34.2499 -34.1060 -13.2027 -12.2664  -4.8313  -3.3295
    -3.0438  -2.2658  -1.5402  -0.6114  -0.2251   2.5403   3.0528   3.1066
     4.4068   6.1119   6.7319   7.7084   9.3596   9.4206  10.1341  10.3554
    11.2902  12.0839  12.4247  13.0143  13.5644  14.4325  14.4644  15.5331
    15.5947  17.4169  17.9454  18.2656  18.8297  19.8162  20.0001  20.2469
    20.4298  21.1756  21.2347  21.2936  22.1049  22.7788  22.9589  23.5318
    24.3317  24.3356

     occupation numbers 
     1.0000   1.0000   1.0000   1.0000   1.0000   1.0000   1.0000   1.0000
     1.0000   1.0000   1.0000   1.0000   1.0000   0.0000   0.0000   0.0000
     0.0000   0.0000   0.0000   0.0000   0.0000   0.0000   0.0000   0.0000
     0.0000   0.0000   0.0000   0.0000   0.0000   0.0000   0.0000   0.0000
     0.0000   0.0000   0.0000   0.0000   0.0000   0.0000   0.0000   0.0000
     0.0000   0.0000   0.0000   0.0000   0.0000   0.0000   0.0000   0.0000
     0.0000   0.0000

          k = 0.0833 0.3368 0.0000 (  7030 PWs)   bands (ev):

   -59.8676 -34.3968 -34.3656 -34.1391 -12.6834 -12.0587  -4.8759  -3.7260
    -3.5031  -2.6685  -1.3214  -0.9341  -0.4806   2.4980   3.0270   3.5122
     4.7742   6.9112   7.4547   8.2628   9.0651   9.1515  10.3589  10.3630
    11.8733  12.2991  12.5936  13.1311  13.4814  14.7038  15.1327  15.6224
    15.8886  15.9390  16.5885  17.7134  18.0348  18.6801  19.0667  19.3588
    19.7958  20.3659  21.1659  21.4145  21.9242  22.1621  23.0395  23.1257
    23.5748  24.3959

     occupation numbers 
     1.0000   1.0000   1.0000   1.0000   1.0000   1.0000   1.0000   1.0000
     1.0000   1.0000   1.0000   1.0000   1.0000   0.0000   0.0000   0.0000
     0.0000   0.0000   0.0000   0.0000   0.0000   0.0000   0.0000   0.0000
     0.0000   0.0000   0.0000   0.0000   0.0000   0.0000   0.0000   0.0000
     0.0000   0.0000   0.0000   0.0000   0.0000   0.0000   0.0000   0.0000
     0.0000   0.0000   0.0000   0.0000   0.0000   0.0000   0.0000   0.0000
     0.0000   0.0000

          k = 0.0833 0.4330 0.0000 (  7036 PWs)   bands (ev):

   -59.8563 -34.4650 -34.3750 -34.1673 -12.1681 -11.8581  -5.2434  -4.3526
    -3.5858  -2.8435  -1.3014  -1.2239  -0.3203   2.7369   3.1868   3.9993
     4.8865   7.6711   8.1342   8.1348   8.9008   9.0959  10.5617  10.6417
    11.5463  12.1649  12.3191  13.3236  14.0450  14.0476  14.8380  15.2433
    15.8881  15.9118  16.6157  17.2620  17.6583  18.3526  19.0375  19.1286
    19.5334  19.7670  20.1365  20.7894  21.7252  22.2125  22.6581  22.7394
    23.5638  23.5662

     occupation numbers 
     1.0000   1.0000   1.0000   1.0000   1.0000   1.0000   1.0000   1.0000
     1.0000   1.0000   1.0000   1.0000   1.0000   0.0000   0.0000   0.0000
     0.0000   0.0000   0.0000   0.0000   0.0000   0.0000   0.0000   0.0000
     0.0000   0.0000   0.0000   0.0000   0.0000   0.0000   0.0000   0.0000
     0.0000   0.0000   0.0000   0.0000   0.0000   0.0000   0.0000   0.0000
     0.0000   0.0000   0.0000   0.0000   0.0000   0.0000   0.0000   0.0000
     0.0000   0.0000

          k = 0.0833 0.5292 0.0000 (  7050 PWs)   bands (ev):

   -59.8505 -34.5219 -34.3623 -34.1840 -11.8296 -11.7312  -5.5288  -4.7206
    -3.7660  -2.8927  -1.5325  -1.0742  -0.0626   2.9460   3.4469   4.4023
     4.7340   6.8725   8.6124   8.8490   9.4063   9.7982  10.4105  10.6780
    11.2638  11.5249  12.0680  12.3918  13.3947  13.5998  15.1002  15.4009
    15.7568  16.4623  17.1370  17.5689  17.6641  18.1175  18.9203  19.0527
    19.5788  19.7902  20.2452  20.2515  21.6257  21.9885  22.2949  22.4515
    23.0553  23.3276

     occupation numbers 
     1.0000   1.0000   1.0000   1.0000   1.0000   1.0000   1.0000   1.0000
     1.0000   1.0000   1.0000   1.0000   1.0000   0.0000   0.0000   0.0000
     0.0000   0.0000   0.0000   0.0000   0.0000   0.0000   0.0000   0.0000
     0.0000   0.0000   0.0000   0.0000   0.0000   0.0000   0.0000   0.0000
     0.0000   0.0000   0.0000   0.0000   0.0000   0.0000   0.0000   0.0000
     0.0000   0.0000   0.0000   0.0000   0.0000   0.0000   0.0000   0.0000
     0.0000   0.0000

          k = 0.1667 0.2887 0.0000 (  7031 PWs)   bands (ev):

   -59.8694 -34.4002 -34.3376 -34.1476 -12.7584 -12.0856  -4.7649  -3.4710
    -3.4512  -2.9550  -1.5699  -0.6381  -0.4110   2.3581   3.0874   3.1966
     4.8434   6.7945   7.3724   8.2844   9.5454   9.6024  10.2855  10.7097
    11.3710  12.2592  12.3165  12.7208  12.9061  14.6949  15.1784  15.6007
    15.9116  17.2444  17.2920  17.5456  18.0249  18.5918  18.7226  19.0619
    19.2381  20.4974  20.8132  21.3257  21.8627  22.1973  22.7993  23.5191
    23.5514  24.0394

     occupation numbers 
     1.0000   1.0000   1.0000   1.0000   1.0000   1.0000   1.0000   1.0000
     1.0000   1.0000   1.0000   1.0000   1.0000   0.0000   0.0000   0.0000
     0.0000   0.0000   0.0000   0.0000   0.0000   0.0000   0.0000   0.0000
     0.0000   0.0000   0.0000   0.0000   0.0000   0.0000   0.0000   0.0000
     0.0000   0.0000   0.0000   0.0000   0.0000   0.0000   0.0000   0.0000
     0.0000   0.0000   0.0000   0.0000   0.0000   0.0000   0.0000   0.0000
     0.0000   0.0000

          k = 0.1667 0.3849 0.0000 (  7038 PWs)   bands (ev):

   -59.8583 -34.4203 -34.3785 -34.1936 -12.2599 -11.8829  -4.9703  -4.2088
    -3.3575  -3.0786  -1.9140  -0.9668  -0.3256   2.5352   3.2715   3.5119
     5.0709   7.6731   8.1561   8.6315   9.0320   9.5899  10.6963  10.8121
    11.3613  12.3292  12.4852  12.9787  13.2557  14.8036  14.8379  15.2028
    15.7293  16.2465  16.3503  16.6652  17.4945  17.5459  18.4542  18.6264
    19.7013  19.8482  20.4510  20.4960  21.6561  21.8273  22.6728  22.8068
    24.0883  24.3076

     occupation numbers 
     1.0000   1.0000   1.0000   1.0000   1.0000   1.0000   1.0000   1.0000
     1.0000   1.0000   1.0000   1.0000   1.0000   0.0000   0.0000   0.0000
     0.0000   0.0000   0.0000   0.0000   0.0000   0.0000   0.0000   0.0000
     0.0000   0.0000   0.0000   0.0000   0.0000   0.0000   0.0000   0.0000
     0.0000   0.0000   0.0000   0.0000   0.0000   0.0000   0.0000   0.0000
     0.0000   0.0000   0.0000   0.0000   0.0000   0.0000   0.0000   0.0000
     0.0000   0.0000

          k = 0.1667 0.4811 0.0000 (  7045 PWs)   bands (ev):

   -59.8502 -34.4789 -34.3624 -34.2287 -11.8463 -11.7161  -5.1863  -4.7833
    -3.5357  -2.9765  -2.0144  -1.3765  -0.0598   2.8020   3.5298   3.8312
     5.0887   7.4873   8.8855   8.9293   9.6343   9.9104  10.4476  10.9601
    11.3048  12.3290  12.3470  12.8323  13.7395  13.9363  14.3242  15.0622
    15.2743  15.9401  16.1451  16.3594  17.3473  17.4323  17.7558  18.2667
    19.5832  19.8213  20.5453  20.6235  20.9697  21.4141  22.7680  22.7960
    23.3380  23.8363

     occupation numbers 
     1.0000   1.0000   1.0000   1.0000   1.0000   1.0000   1.0000   1.0000
     1.0000   1.0000   1.0000   1.0000   1.0000   0.0000   0.0000   0.0000
     0.0000   0.0000   0.0000   0.0000   0.0000   0.0000   0.0000   0.0000
     0.0000   0.0000   0.0000   0.0000   0.0000   0.0000   0.0000   0.0000
     0.0000   0.0000   0.0000   0.0000   0.0000   0.0000   0.0000   0.0000
     0.0000   0.0000   0.0000   0.0000   0.0000   0.0000   0.0000   0.0000
     0.0000   0.0000

          k = 0.1667 0.5774 0.0000 (  7054 PWs)   bands (ev):

   -59.8477 -34.5001 -34.3565 -34.2419 -11.6811 -11.6502  -5.2675  -4.9931
    -3.6964  -2.8892  -1.9934  -1.5765   0.1307   2.8031   3.7719   3.9663
     5.0486   6.9826   9.5233   9.6479   9.8392   9.9316  10.7553  10.9947
    10.9981  11.5335  12.2182  12.7441  13.3727  13.6396  14.4171  15.1552
    15.3791  15.9304  16.0495  16.9092  17.1171  17.4141  17.6325  17.6566
    19.6645  19.7913  20.4499  20.7063  20.7415  20.9599  22.4163  23.1183
    23.1853  23.7858

     occupation numbers 
     1.0000   1.0000   1.0000   1.0000   1.0000   1.0000   1.0000   1.0000
     1.0000   1.0000   1.0000   1.0000   1.0000   0.0000   0.0000   0.0000
     0.0000   0.0000   0.0000   0.0000   0.0000   0.0000   0.0000   0.0000
     0.0000   0.0000   0.0000   0.0000   0.0000   0.0000   0.0000   0.0000
     0.0000   0.0000   0.0000   0.0000   0.0000   0.0000   0.0000   0.0000
     0.0000   0.0000   0.0000   0.0000   0.0000   0.0000   0.0000   0.0000
     0.0000   0.0000

          k = 0.2500 0.4330 0.0000 (  7037 PWs)   bands (ev):

   -59.8497 -34.4502 -34.3623 -34.2584 -11.8545 -11.7085  -4.9809  -4.8123
    -3.2355  -3.0258  -2.6522  -1.2803  -0.0910   2.7241   3.5481   3.5710
     5.3114   7.9787   8.7397   8.9457   9.3062  10.1812  10.4116  11.3413
    12.0738  12.5926  12.6837  13.2951  13.4464  13.7806  14.2261  14.3077
    15.1609  15.6914  15.8105  15.8900  16.4906  16.7286  18.4287  18.4610
    19.0307  19.5539  20.2652  20.7032  21.0919  22.1350  22.2144  23.4064
    23.4619  23.4974

     occupation numbers 
     1.0000   1.0000   1.0000   1.0000   1.0000   1.0000   1.0000   1.0000
     1.0000   1.0000   1.0000   1.0000   1.0000   0.0000   0.0000   0.0000
     0.0000   0.0000   0.0000   0.0000   0.0000   0.0000   0.0000   0.0000
     0.0000   0.0000   0.0000   0.0000   0.0000   0.0000   0.0000   0.0000
     0.0000   0.0000   0.0000   0.0000   0.0000   0.0000   0.0000   0.0000
     0.0000   0.0000   0.0000   0.0000   0.0000   0.0000   0.0000   0.0000
     0.0000   0.0000

          k = 0.2500 0.5292 0.0000 (  7041 PWs)   bands (ev):

   -59.8450 -34.4564 -34.3529 -34.3070 -11.6003 -11.5955  -5.1912  -4.8563
    -3.5617  -2.8836  -2.8086  -1.6438   0.2434   2.5572   3.5476   4.0109
     5.4921   7.4753   8.6702   9.5905  10.2253  10.9512  11.0285  11.5974
    12.1454  12.4193  12.4421  12.9316  13.2227  13.8565  14.0640  14.0825
    14.3129  14.9409  15.4003  15.7386  16.4489  16.8892  17.6248  17.9405
    18.7854  19.0701  20.0530  20.4180  20.8619  21.5687  22.1523  23.1298
    23.3155  24.5692

     occupation numbers 
     1.0000   1.0000   1.0000   1.0000   1.0000   1.0000   1.0000   1.0000
     1.0000   1.0000   1.0000   1.0000   1.0000   0.0000   0.0000   0.0000
     0.0000   0.0000   0.0000   0.0000   0.0000   0.0000   0.0000   0.0000
     0.0000   0.0000   0.0000   0.0000   0.0000   0.0000   0.0000   0.0000
     0.0000   0.0000   0.0000   0.0000   0.0000   0.0000   0.0000   0.0000
     0.0000   0.0000   0.0000   0.0000   0.0000   0.0000   0.0000   0.0000
     0.0000   0.0000

          k = 0.3333 0.5774 0.0000 (  7047 PWs)   bands (ev):

   -59.8436 -34.4205 -34.3640 -34.3493 -11.5470 -11.5084  -5.3537  -4.4495
    -3.8896  -3.1806  -2.6450  -1.8392   0.4512   2.3115   3.4200   4.2683
     5.7014   7.7713   7.9529   9.8605  11.0241  11.5810  11.9180  12.0546
    12.1607  12.2210  12.3410  12.8863  13.1497  13.2812  13.7981  13.9453
    14.5733  14.6474  14.6620  14.6701  16.6087  17.1083  17.5242  17.8382
    17.8809  18.5797  19.5356  20.4592  21.2110  21.4241  22.1111  22.1496
    24.3202  24.5494

     occupation numbers 
     1.0000   1.0000   1.0000   1.0000   1.0000   1.0000   1.0000   1.0000
     1.0000   1.0000   1.0000   1.0000   1.0000   0.0000   0.0000   0.0000
     0.0000   0.0000   0.0000   0.0000   0.0000   0.0000   0.0000   0.0000
     0.0000   0.0000   0.0000   0.0000   0.0000   0.0000   0.0000   0.0000
     0.0000   0.0000   0.0000   0.0000   0.0000   0.0000   0.0000   0.0000
     0.0000   0.0000   0.0000   0.0000   0.0000   0.0000   0.0000   0.0000
     0.0000   0.0000

 ------ SPIN DOWN ----------


          k = 0.0000 0.0000 0.0000 (  7087 PWs)   bands (ev):

   -59.9065 -34.4628 -34.0544 -34.0544 -13.9408 -12.5655  -5.4748  -2.2081
    -2.2081  -1.5613  -1.0636  -1.0636   0.2317   3.3550   3.3550   3.6498
     3.6498   5.1016   5.7676   6.6081   7.1381   8.6593   9.5525  10.4457
    11.2625  11.2625  13.2807  13.2807  13.4449  13.5244  15.4461  16.6861
    16.6861  16.6955  17.1135  17.1135  18.9608  19.6603  20.5579  21.2825
    23.8326  23.8326  25.3117  25.3140  25.3140  25.6271  25.7105  25.7105
    25.7223  26.0412

     occupation numbers 
     1.0000   1.0000   1.0000   1.0000   1.0000   1.0000   1.0000   1.0000
     1.0000   1.0000   1.0000   1.0000   1.0000   0.0000   0.0000   0.0000
     0.0000   0.0000   0.0000   0.0000   0.0000   0.0000   0.0000   0.0000
     0.0000   0.0000   0.0000   0.0000   0.0000   0.0000   0.0000   0.0000
     0.0000   0.0000   0.0000   0.0000   0.0000   0.0000   0.0000   0.0000
     0.0000   0.0000   0.0000   0.0000   0.0000   0.0000   0.0000   0.0000
     0.0000   0.0000

          k = 0.0000 0.0962 0.0000 (  7065 PWs)   bands (ev):

   -59.9015 -34.4559 -34.0878 -34.0618 -13.8269 -12.5193  -5.3483  -2.4541
    -2.0894  -2.0184  -1.2434  -0.7791   0.1989   3.2022   3.3113   3.5221
     3.5521   5.2611   5.9109   6.8840   7.5377   8.7846  10.0367  10.4420
    11.1132  11.6155  12.4781  13.3159  13.4251  13.6456  15.4467  16.0051
    16.7387  16.8902  17.0994  17.7307  19.3641  19.9563  21.2312  21.4111
    22.5066  22.7208  23.5255  23.8882  24.1237  24.3471  24.3857  24.6616
    24.7462  25.4204

     occupation numbers 
     1.0000   1.0000   1.0000   1.0000   1.0000   1.0000   1.0000   1.0000
     1.0000   1.0000   1.0000   1.0000   1.0000   0.0000   0.0000   0.0000
     0.0000   0.0000   0.0000   0.0000   0.0000   0.0000   0.0000   0.0000
     0.0000   0.0000   0.0000   0.0000   0.0000   0.0000   0.0000   0.0000
     0.0000   0.0000   0.0000   0.0000   0.0000   0.0000   0.0000   0.0000
     0.0000   0.0000   0.0000   0.0000   0.0000   0.0000   0.0000   0.0000
     0.0000   0.0000

          k = 0.0000 0.1925 0.0000 (  7045 PWs)   bands (ev):

   -59.8904 -34.4374 -34.1787 -34.0821 -13.5023 -12.3878  -5.0349  -3.0086
    -2.6984  -1.7594  -1.6637  -0.7051   0.0069   2.7699   3.1296   3.2330
     3.9971   5.6928   6.3276   7.3284   8.6339   9.1099  10.2234  10.5479
    11.1732  11.8437  12.5574  13.0471  13.5187  13.7743  15.2332  15.3088
    15.8408  17.3122  17.3815  19.4696  19.4919  19.8872  20.3959  20.7898
    20.9495  21.9286  22.1698  22.8408  22.8637  23.0439  23.2827  23.7292
    24.0498  24.1445

     occupation numbers 
     1.0000   1.0000   1.0000   1.0000   1.0000   1.0000   1.0000   1.0000
     1.0000   1.0000   1.0000   1.0000   1.0000   0.0000   0.0000   0.0000
     0.0000   0.0000   0.0000   0.0000   0.0000   0.0000   0.0000   0.0000
     0.0000   0.0000   0.0000   0.0000   0.0000   0.0000   0.0000   0.0000
     0.0000   0.0000   0.0000   0.0000   0.0000   0.0000   0.0000   0.0000
     0.0000   0.0000   0.0000   0.0000   0.0000   0.0000   0.0000   0.0000
     0.0000   0.0000

          k = 0.0000 0.2887 0.0000 (  7009 PWs)   bands (ev):

   -59.8748 -34.4125 -34.2998 -34.1099 -13.0194 -12.1940  -4.8279  -3.4616
    -3.3958  -2.1310  -1.3011  -0.9830  -0.4113   2.5980   2.9648   3.4591
     4.4449   6.3740   6.9724   7.8292   9.1445   9.1636  10.1451  10.2454
    11.5666  12.3947  12.7555  13.6031  13.9208  14.0407  14.9246  15.0186
    15.5641  16.8264  17.4783  17.9056  17.9205  18.7703  19.8642  20.6274
    21.3178  21.6865  21.7626  21.7828  22.2101  22.4822  22.8032  22.8204
    22.8954  23.9360

     occupation numbers 
     1.0000   1.0000   1.0000   1.0000   1.0000   1.0000   1.0000   1.0000
     1.0000   1.0000   1.0000   1.0000   1.0000   0.0000   0.0000   0.0000
     0.0000   0.0000   0.0000   0.0000   0.0000   0.0000   0.0000   0.0000
     0.0000   0.0000   0.0000   0.0000   0.0000   0.0000   0.0000   0.0000
     0.0000   0.0000   0.0000   0.0000   0.0000   0.0000   0.0000   0.0000
     0.0000   0.0000   0.0000   0.0000   0.0000   0.0000   0.0000   0.0000
     0.0000   0.0000

          k = 0.0000 0.3849 0.0000 (  7036 PWs)   bands (ev):

   -59.8630 -34.4208 -34.3874 -34.1379 -12.4722 -11.9798  -5.0962  -4.0398
    -3.5782  -2.5222  -1.3139  -0.8536  -0.6510   2.8170   2.8589   3.9475
     4.7574   7.2539   7.6759   8.2258   8.5703   8.7592  10.2282  10.4953
    11.9686  12.1151  13.0919  13.3534  14.4703  14.6757  14.8767  15.0459
    15.5420  15.9459  16.6879  16.7283  18.1861  18.3289  18.6424  20.2748
    20.4913  20.9151  21.1111  21.4179  21.9447  21.9673  22.1093  22.5257
    22.9468  23.9180

     occupation numbers 
     1.0000   1.0000   1.0000   1.0000   1.0000   1.0000   1.0000   1.0000
     1.0000   1.0000   1.0000   1.0000   1.0000   0.0000   0.0000   0.0000
     0.0000   0.0000   0.0000   0.0000   0.0000   0.0000   0.0000   0.0000
     0.0000   0.0000   0.0000   0.0000   0.0000   0.0000   0.0000   0.0000
     0.0000   0.0000   0.0000   0.0000   0.0000   0.0000   0.0000   0.0000
     0.0000   0.0000   0.0000   0.0000   0.0000   0.0000   0.0000   0.0000
     0.0000   0.0000

          k = 0.0000 0.4811 0.0000 (  7054 PWs)   bands (ev):

   -59.8544 -34.5080 -34.3692 -34.1580 -12.0094 -11.8064  -5.4998  -4.5116
    -3.7373  -2.7753  -1.5229  -0.5565  -0.4356   2.9242   3.1955   4.2765
     4.9197   7.1707   8.0168   8.2547   9.1045   9.1082  10.4214  10.5455
    11.7488  12.1247  12.2247  12.3485  13.5900  13.9616  15.0218  15.5600
    15.7534  16.5136  17.2616  17.3233  18.1660  18.5821  18.7144  19.6094
    19.6592  20.4280  20.7421  21.2585  21.4753  21.6169  21.7919  22.0070
    23.0155  23.4745

     occupation numbers 
     1.0000   1.0000   1.0000   1.0000   1.0000   1.0000   1.0000   1.0000
     1.0000   1.0000   1.0000   1.0000   1.0000   0.0000   0.0000   0.0000
     0.0000   0.0000   0.0000   0.0000   0.0000   0.0000   0.0000   0.0000
     0.0000   0.0000   0.0000   0.0000   0.0000   0.0000   0.0000   0.0000
     0.0000   0.0000   0.0000   0.0000   0.0000   0.0000   0.0000   0.0000
     0.0000   0.0000   0.0000   0.0000   0.0000   0.0000   0.0000   0.0000
     0.0000   0.0000

          k = 0.0000-0.5774 0.0000 (  7056 PWs)   bands (ev):

   -59.8509 -34.5394 -34.3624 -34.1655 -11.8211 -11.7387  -5.6758  -4.6865
    -3.8413  -2.8624  -1.5898  -0.4597  -0.2468   2.9895   3.4226   4.3675
     4.9674   6.6176   8.1623   8.6770   9.3573   9.9258  10.4431  10.6765
    10.7679  11.8483  11.8708  12.4139  13.0412  13.3106  15.2297  15.6218
    16.1501  16.3462  17.5351  17.9239  18.5640  18.6899  18.9774  19.5842
    19.6401  20.3264  20.6915  20.8541  21.3636  21.4906  21.6522  21.7450
    22.7271  23.2624

     occupation numbers 
     1.0000   1.0000   1.0000   1.0000   1.0000   1.0000   1.0000   1.0000
     1.0000   1.0000   1.0000   1.0000   1.0000   0.0000   0.0000   0.0000
     0.0000   0.0000   0.0000   0.0000   0.0000   0.0000   0.0000   0.0000
     0.0000   0.0000   0.0000   0.0000   0.0000   0.0000   0.0000   0.0000
     0.0000   0.0000   0.0000   0.0000   0.0000   0.0000   0.0000   0.0000
     0.0000   0.0000   0.0000   0.0000   0.0000   0.0000   0.0000   0.0000
     0.0000   0.0000

          k = 0.0833 0.1443 0.0000 (  7059 PWs)   bands (ev):

   -59.8944 -34.4436 -34.1482 -34.0775 -13.6075 -12.4303  -5.1241  -2.8465
    -2.4711  -1.8744  -1.6635  -0.5787   0.0872   2.8997   3.0395   3.2930
     3.9146   5.5540   6.1924   7.2182   8.3479   9.0190  10.3141  10.6723
    11.0989  11.7211  12.1482  13.1830  13.2952  13.9266  15.3694  15.5932
    15.9390  17.0143  17.3915  19.0719  20.0798  20.4220  20.7838  21.0799
    21.2325  21.5641  21.6049  22.6906  22.8294  23.1141  23.5680  24.1585
    24.4613  24.8855

     occupation numbers 
     1.0000   1.0000   1.0000   1.0000   1.0000   1.0000   1.0000   1.0000
     1.0000   1.0000   1.0000   1.0000   1.0000   0.0000   0.0000   0.0000
     0.0000   0.0000   0.0000   0.0000   0.0000   0.0000   0.0000   0.0000
     0.0000   0.0000   0.0000   0.0000   0.0000   0.0000   0.0000   0.0000
     0.0000   0.0000   0.0000   0.0000   0.0000   0.0000   0.0000   0.0000
     0.0000   0.0000   0.0000   0.0000   0.0000   0.0000   0.0000   0.0000
     0.0000   0.0000

          k = 0.0833 0.2406 0.0000 (  7034 PWs)   bands (ev):

   -59.8813 -34.4217 -34.2499 -34.1060 -13.2027 -12.2664  -4.8313  -3.3295
    -3.0438  -2.2658  -1.5402  -0.6114  -0.2251   2.5403   3.0528   3.1066
     4.4068   6.1119   6.7319   7.7084   9.3596   9.4206  10.1341  10.3554
    11.2902  12.0839  12.4247  13.0144  13.5644  14.4325  14.4644  15.5331
    15.5947  17.4169  17.9454  18.2656  18.8297  19.8162  20.0001  20.2469
    20.4298  21.1756  21.2347  21.2936  22.1049  22.7788  22.9589  23.5318
    24.3316  24.3356

     occupation numbers 
     1.0000   1.0000   1.0000   1.0000   1.0000   1.0000   1.0000   1.0000
     1.0000   1.0000   1.0000   1.0000   1.0000   0.0000   0.0000   0.0000
     0.0000   0.0000   0.0000   0.0000   0.0000   0.0000   0.0000   0.0000
     0.0000   0.0000   0.0000   0.0000   0.0000   0.0000   0.0000   0.0000
     0.0000   0.0000   0.0000   0.0000   0.0000   0.0000   0.0000   0.0000
     0.0000   0.0000   0.0000   0.0000   0.0000   0.0000   0.0000   0.0000
     0.0000   0.0000

          k = 0.0833 0.3368 0.0000 (  7030 PWs)   bands (ev):

   -59.8676 -34.3968 -34.3656 -34.1391 -12.6834 -12.0586  -4.8758  -3.7260
    -3.5031  -2.6685  -1.3214  -0.9341  -0.4806   2.4980   3.0270   3.5122
     4.7742   6.9112   7.4547   8.2628   9.0651   9.1515  10.3589  10.3630
    11.8733  12.2991  12.5936  13.1311  13.4814  14.7038  15.1327  15.6224
    15.8886  15.9390  16.5885  17.7134  18.0348  18.6801  19.0667  19.3588
    19.7958  20.3659  21.1659  21.4145  21.9242  22.1621  23.0395  23.1257
    23.5748  24.3959

     occupation numbers 
     1.0000   1.0000   1.0000   1.0000   1.0000   1.0000   1.0000   1.0000
     1.0000   1.0000   1.0000   1.0000   1.0000   0.0000   0.0000   0.0000
     0.0000   0.0000   0.0000   0.0000   0.0000   0.0000   0.0000   0.0000
     0.0000   0.0000   0.0000   0.0000   0.0000   0.0000   0.0000   0.0000
     0.0000   0.0000   0.0000   0.0000   0.0000   0.0000   0.0000   0.0000
     0.0000   0.0000   0.0000   0.0000   0.0000   0.0000   0.0000   0.0000
     0.0000   0.0000

          k = 0.0833 0.4330 0.0000 (  7036 PWs)   bands (ev):

   -59.8563 -34.4650 -34.3750 -34.1673 -12.1681 -11.8581  -5.2434  -4.3526
    -3.5858  -2.8435  -1.3014  -1.2239  -0.3203   2.7369   3.1868   3.9993
     4.8865   7.6711   8.1342   8.1348   8.9008   9.0959  10.5617  10.6417
    11.5463  12.1649  12.3191  13.3236  14.0450  14.0476  14.8380  15.2433
    15.8881  15.9118  16.6157  17.2620  17.6583  18.3526  19.0375  19.1286
    19.5334  19.7670  20.1365  20.7894  21.7252  22.2125  22.6581  22.7394
    23.5638  23.5662

     occupation numbers 
     1.0000   1.0000   1.0000   1.0000   1.0000   1.0000   1.0000   1.0000
     1.0000   1.0000   1.0000   1.0000   1.0000   0.0000   0.0000   0.0000
     0.0000   0.0000   0.0000   0.0000   0.0000   0.0000   0.0000   0.0000
     0.0000   0.0000   0.0000   0.0000   0.0000   0.0000   0.0000   0.0000
     0.0000   0.0000   0.0000   0.0000   0.0000   0.0000   0.0000   0.0000
     0.0000   0.0000   0.0000   0.0000   0.0000   0.0000   0.0000   0.0000
     0.0000   0.0000

          k = 0.0833 0.5292 0.0000 (  7050 PWs)   bands (ev):

   -59.8505 -34.5219 -34.3623 -34.1840 -11.8296 -11.7312  -5.5288  -4.7206
    -3.7660  -2.8927  -1.5325  -1.0742  -0.0626   2.9460   3.4469   4.4023
     4.7340   6.8725   8.6124   8.8490   9.4063   9.7982  10.4105  10.6780
    11.2638  11.5249  12.0680  12.3918  13.3947  13.5998  15.1002  15.4009
    15.7568  16.4623  17.1370  17.5689  17.6641  18.1175  18.9203  19.0527
    19.5788  19.7902  20.2452  20.2515  21.6257  21.9885  22.2949  22.4515
    23.0553  23.3276

     occupation numbers 
     1.0000   1.0000   1.0000   1.0000   1.0000   1.0000   1.0000   1.0000
     1.0000   1.0000   1.0000   1.0000   1.0000   0.0000   0.0000   0.0000
     0.0000   0.0000   0.0000   0.0000   0.0000   0.0000   0.0000   0.0000
     0.0000   0.0000   0.0000   0.0000   0.0000   0.0000   0.0000   0.0000
     0.0000   0.0000   0.0000   0.0000   0.0000   0.0000   0.0000   0.0000
     0.0000   0.0000   0.0000   0.0000   0.0000   0.0000   0.0000   0.0000
     0.0000   0.0000

          k = 0.1667 0.2887 0.0000 (  7031 PWs)   bands (ev):

   -59.8695 -34.4003 -34.3376 -34.1476 -12.7584 -12.0856  -4.7649  -3.4710
    -3.4512  -2.9550  -1.5699  -0.6381  -0.4110   2.3581   3.0874   3.1966
     4.8434   6.7945   7.3725   8.2844   9.5454   9.6024  10.2855  10.7097
    11.3710  12.2592  12.3165  12.7208  12.9061  14.6949  15.1784  15.6007
    15.9116  17.2444  17.2920  17.5456  18.0249  18.5918  18.7226  19.0619
    19.2381  20.4974  20.8132  21.3257  21.8627  22.1973  22.7993  23.5191
    23.5515  24.0394

     occupation numbers 
     1.0000   1.0000   1.0000   1.0000   1.0000   1.0000   1.0000   1.0000
     1.0000   1.0000   1.0000   1.0000   1.0000   0.0000   0.0000   0.0000
     0.0000   0.0000   0.0000   0.0000   0.0000   0.0000   0.0000   0.0000
     0.0000   0.0000   0.0000   0.0000   0.0000   0.0000   0.0000   0.0000
     0.0000   0.0000   0.0000   0.0000   0.0000   0.0000   0.0000   0.0000
     0.0000   0.0000   0.0000   0.0000   0.0000   0.0000   0.0000   0.0000
     0.0000   0.0000

          k = 0.1667 0.3849 0.0000 (  7038 PWs)   bands (ev):

   -59.8583 -34.4204 -34.3785 -34.1936 -12.2599 -11.8829  -4.9703  -4.2088
    -3.3575  -3.0786  -1.9140  -0.9668  -0.3256   2.5352   3.2715   3.5119
     5.0709   7.6731   8.1561   8.6315   9.0320   9.5899  10.6963  10.8121
    11.3613  12.3292  12.4852  12.9787  13.2557  14.8036  14.8379  15.2028
    15.7293  16.2465  16.3503  16.6652  17.4945  17.5459  18.4542  18.6264
    19.7013  19.8482  20.4510  20.4960  21.6561  21.8273  22.6728  22.8068
    24.0883  24.3077

     occupation numbers 
     1.0000   1.0000   1.0000   1.0000   1.0000   1.0000   1.0000   1.0000
     1.0000   1.0000   1.0000   1.0000   1.0000   0.0000   0.0000   0.0000
     0.0000   0.0000   0.0000   0.0000   0.0000   0.0000   0.0000   0.0000
     0.0000   0.0000   0.0000   0.0000   0.0000   0.0000   0.0000   0.0000
     0.0000   0.0000   0.0000   0.0000   0.0000   0.0000   0.0000   0.0000
     0.0000   0.0000   0.0000   0.0000   0.0000   0.0000   0.0000   0.0000
     0.0000   0.0000

          k = 0.1667 0.4811 0.0000 (  7045 PWs)   bands (ev):

   -59.8502 -34.4789 -34.3624 -34.2287 -11.8463 -11.7161  -5.1863  -4.7833
    -3.5357  -2.9765  -2.0144  -1.3765  -0.0598   2.8020   3.5298   3.8312
     5.0887   7.4873   8.8855   8.9293   9.6343   9.9104  10.4476  10.9601
    11.3048  12.3290  12.3470  12.8323  13.7395  13.9363  14.3242  15.0622
    15.2743  15.9401  16.1451  16.3594  17.3473  17.4323  17.7558  18.2667
    19.5832  19.8213  20.5453  20.6235  20.9697  21.4141  22.7680  22.7960
    23.3380  23.8364

     occupation numbers 
     1.0000   1.0000   1.0000   1.0000   1.0000   1.0000   1.0000   1.0000
     1.0000   1.0000   1.0000   1.0000   1.0000   0.0000   0.0000   0.0000
     0.0000   0.0000   0.0000   0.0000   0.0000   0.0000   0.0000   0.0000
     0.0000   0.0000   0.0000   0.0000   0.0000   0.0000   0.0000   0.0000
     0.0000   0.0000   0.0000   0.0000   0.0000   0.0000   0.0000   0.0000
     0.0000   0.0000   0.0000   0.0000   0.0000   0.0000   0.0000   0.0000
     0.0000   0.0000

          k = 0.1667 0.5774 0.0000 (  7054 PWs)   bands (ev):

   -59.8477 -34.5001 -34.3565 -34.2419 -11.6811 -11.6502  -5.2675  -4.9931
    -3.6964  -2.8892  -1.9934  -1.5765   0.1307   2.8031   3.7719   3.9663
     5.0486   6.9826   9.5233   9.6479   9.8392   9.9316  10.7553  10.9947
    10.9981  11.5335  12.2182  12.7441  13.3727  13.6396  14.4171  15.1552
    15.3791  15.9304  16.0495  16.9092  17.1171  17.4141  17.6325  17.6566
    19.6645  19.7913  20.4499  20.7063  20.7415  20.9599  22.4163  23.1183
    23.1853  23.7858

     occupation numbers 
     1.0000   1.0000   1.0000   1.0000   1.0000   1.0000   1.0000   1.0000
     1.0000   1.0000   1.0000   1.0000   1.0000   0.0000   0.0000   0.0000
     0.0000   0.0000   0.0000   0.0000   0.0000   0.0000   0.0000   0.0000
     0.0000   0.0000   0.0000   0.0000   0.0000   0.0000   0.0000   0.0000
     0.0000   0.0000   0.0000   0.0000   0.0000   0.0000   0.0000   0.0000
     0.0000   0.0000   0.0000   0.0000   0.0000   0.0000   0.0000   0.0000
     0.0000   0.0000

          k = 0.2500 0.4330 0.0000 (  7037 PWs)   bands (ev):

   -59.8497 -34.4503 -34.3623 -34.2584 -11.8545 -11.7085  -4.9809  -4.8123
    -3.2355  -3.0258  -2.6522  -1.2803  -0.0910   2.7241   3.5481   3.5710
     5.3114   7.9787   8.7397   8.9457   9.3062  10.1812  10.4116  11.3413
    12.0738  12.5926  12.6837  13.2951  13.4464  13.7806  14.2261  14.3077
    15.1609  15.6914  15.8105  15.8900  16.4906  16.7286  18.4287  18.4610
    19.0307  19.5539  20.2652  20.7032  21.0919  22.1350  22.2144  23.4063
    23.4620  23.4974

     occupation numbers 
     1.0000   1.0000   1.0000   1.0000   1.0000   1.0000   1.0000   1.0000
     1.0000   1.0000   1.0000   1.0000   1.0000   0.0000   0.0000   0.0000
     0.0000   0.0000   0.0000   0.0000   0.0000   0.0000   0.0000   0.0000
     0.0000   0.0000   0.0000   0.0000   0.0000   0.0000   0.0000   0.0000
     0.0000   0.0000   0.0000   0.0000   0.0000   0.0000   0.0000   0.0000
     0.0000   0.0000   0.0000   0.0000   0.0000   0.0000   0.0000   0.0000
     0.0000   0.0000

          k = 0.2500 0.5292 0.0000 (  7041 PWs)   bands (ev):

   -59.8450 -34.4564 -34.3529 -34.3070 -11.6003 -11.5955  -5.1912  -4.8563
    -3.5617  -2.8836  -2.8086  -1.6438   0.2434   2.5572   3.5476   4.0109
     5.4921   7.4753   8.6702   9.5905  10.2253  10.9512  11.0285  11.5974
    12.1454  12.4193  12.4421  12.9316  13.2227  13.8565  14.0640  14.0825
    14.3129  14.9410  15.4003  15.7386  16.4489  16.8892  17.6248  17.9405
    18.7854  19.0701  20.0530  20.4179  20.8619  21.5687  22.1523  23.1298
    23.3155  24.5693

     occupation numbers 
     1.0000   1.0000   1.0000   1.0000   1.0000   1.0000   1.0000   1.0000
     1.0000   1.0000   1.0000   1.0000   1.0000   0.0000   0.0000   0.0000
     0.0000   0.0000   0.0000   0.0000   0.0000   0.0000   0.0000   0.0000
     0.0000   0.0000   0.0000   0.0000   0.0000   0.0000   0.0000   0.0000
     0.0000   0.0000   0.0000   0.0000   0.0000   0.0000   0.0000   0.0000
     0.0000   0.0000   0.0000   0.0000   0.0000   0.0000   0.0000   0.0000
     0.0000   0.0000

          k = 0.3333 0.5774 0.0000 (  7047 PWs)   bands (ev):

   -59.8436 -34.4205 -34.3640 -34.3493 -11.5470 -11.5084  -5.3537  -4.4494
    -3.8896  -3.1806  -2.6450  -1.8392   0.4512   2.3115   3.4200   4.2683
     5.7014   7.7713   7.9529   9.8605  11.0241  11.5810  11.9180  12.0546
    12.1607  12.2210  12.3410  12.8863  13.1497  13.2812  13.7981  13.9453
    14.5733  14.6474  14.6620  14.6701  16.6087  17.1083  17.5242  17.8382
    17.8809  18.5797  19.5356  20.4592  21.2110  21.4241  22.1111  22.1496
    24.3202  24.5494

     occupation numbers 
     1.0000   1.0000   1.0000   1.0000   1.0000   1.0000   1.0000   1.0000
     1.0000   1.0000   1.0000   1.0000   1.0000   0.0000   0.0000   0.0000
     0.0000   0.0000   0.0000   0.0000   0.0000   0.0000   0.0000   0.0000
     0.0000   0.0000   0.0000   0.0000   0.0000   0.0000   0.0000   0.0000
     0.0000   0.0000   0.0000   0.0000   0.0000   0.0000   0.0000   0.0000
     0.0000   0.0000   0.0000   0.0000   0.0000   0.0000   0.0000   0.0000
     0.0000   0.0000

     the Fermi energy is     1.8886 ev
     (compare with:     1.6414 eV, computed in scf)

     Writing output data file run_output/MoS2.save/

     init_run     :      0.10s CPU      0.13s WALL (       1 calls)
     electrons    :     14.26s CPU     14.46s WALL (       1 calls)

     Called by init_run:
     wfcinit      :      0.00s CPU      0.01s WALL (       1 calls)
     wfcinit:atom :      0.00s CPU      0.00s WALL (      38 calls)
     wfcinit:wfcr :      0.71s CPU      0.72s WALL (      38 calls)
     potinit      :      0.01s CPU      0.02s WALL (       1 calls)
     hinit0       :      0.08s CPU      0.08s WALL (       1 calls)

     Called by electrons:
     c_bands      :     14.26s CPU     14.46s WALL (       1 calls)
     v_of_rho     :      0.00s CPU      0.00s WALL (       1 calls)
     v_h          :      0.00s CPU      0.00s WALL (       1 calls)
     v_xc         :      0.00s CPU      0.00s WALL (       1 calls)

     Called by c_bands:
     init_us_2    :      0.00s CPU      0.00s WALL (      38 calls)
     cegterg      :     13.50s CPU     13.68s WALL (      42 calls)

     Called by sum_band:

     Called by *egterg:
     cdiaghg      :      6.12s CPU      6.11s WALL (     606 calls)
     cegterg:over :      1.41s CPU      1.45s WALL (     568 calls)
     cegterg:upda :      1.04s CPU      1.05s WALL (     568 calls)
     cegterg:last :      0.71s CPU      0.71s WALL (     118 calls)
     h_psi        :      4.42s CPU      4.53s WALL (     648 calls)
     g_psi        :      0.02s CPU      0.02s WALL (     568 calls)

     Called by h_psi:
     h_psi:calbec :      0.20s CPU      0.20s WALL (     648 calls)
     vloc_psi     :      4.03s CPU      4.11s WALL (     648 calls)
     add_vuspsi   :      0.18s CPU      0.18s WALL (     648 calls)

     General routines
     calbec       :      0.20s CPU      0.20s WALL (     648 calls)
     fft          :      0.01s CPU      0.01s WALL (       5 calls)
     fftw         :      3.88s CPU      3.94s WALL (   32426 calls)
     davcio       :      0.00s CPU      0.02s WALL (      76 calls)

     Parallel routines
     fft_scatt_xy :      0.30s CPU      0.26s WALL (   32431 calls)
     fft_scatt_yz :      1.43s CPU      1.33s WALL (   32431 calls)

     PWSCF        :     15.11s CPU     19.39s WALL


   This run was terminated on:  19:20:30   6May2021            

=------------------------------------------------------------------------------=
   JOB DONE.
=------------------------------------------------------------------------------=
