
     Program PWSCF v.6.7MaX starts on 28Apr2021 at 17:18:54 

     This program is part of the open-source Quantum ESPRESSO suite
     for quantum simulation of materials; please cite
         "P. Giannozzi et al., J. Phys.:Condens. Matter 21 395502 (2009);
         "P. Giannozzi et al., J. Phys.:Condens. Matter 29 465901 (2017);
          URL http://www.quantum-espresso.org", 
     in publications or presentations arising from this work. More details at
     http://www.quantum-espresso.org/quote

     Parallel version (MPI), running on    28 processors

     MPI processes distributed on     1 nodes
     R & G space division:  proc/nbgrp/npool/nimage =      28
     Waiting for input...
     Reading input from standard input

     Current dimensions of program PWSCF are:
     Max number of different atomic species (ntypx) = 10
     Max number of k-points (npk) =  40000
     Max angular momentum in pseudopotentials (lmaxx) =  3

     Atomic positions and unit cell read from directory:
     run_output/hBN.save/
     Atomic positions from file used, from input discarded


     Subspace diagonalization in iterative solution of the eigenvalue problem:
     a serial algorithm will be used


     Parallelization info
     --------------------
     sticks:   dense  smooth     PW     G-vecs:    dense   smooth      PW
     Min           9       9      3                  283      283      53
     Max          10      10      4                  289      289      60
     Sum         253     253     85                 8029     8029    1553



     bravais-lattice index     =            4
     lattice parameter (alat)  =       4.7160  a.u.
     unit-cell volume          =     234.5353 (a.u.)^3
     number of atoms/cell      =            4
     number of atomic types    =            2
     number of electrons       =        16.00
     number of Kohn-Sham states=           70
     kinetic-energy cutoff     =      40.0000  Ry
     charge density cutoff     =     160.0000  Ry
     Exchange-correlation=  SLA  PZ   NOGX NOGC
                           (   1   1   0   0   0   0   0)

     celldm(1)=   4.716000  celldm(2)=   0.000000  celldm(3)=   2.582000
     celldm(4)=   0.000000  celldm(5)=   0.000000  celldm(6)=   0.000000

     crystal axes: (cart. coord. in units of alat)
               a(1) = (   1.000000   0.000000   0.000000 )  
               a(2) = (  -0.500000   0.866025   0.000000 )  
               a(3) = (   0.000000   0.000000   2.582000 )  

     reciprocal axes: (cart. coord. in units 2 pi/alat)
               b(1) = (  1.000000  0.577350 -0.000000 )  
               b(2) = (  0.000000  1.154701  0.000000 )  
               b(3) = (  0.000000 -0.000000  0.387297 )  


     PseudoPot. # 1 for B  read from file:
     ./PPs/B.pz-vbc.UPF
     MD5 check sum: b59596b5d63edeea6a2b3a0beace49c5
     Pseudo is Norm-conserving, Zval =  3.0
     Generated by new atomic code, or converted to UPF format
     Using radial grid of  157 points,  1 beta functions with: 
                l(1) =   0

     PseudoPot. # 2 for N  read from file:
     ./PPs/N.pz-vbc.UPF
     MD5 check sum: f7a51f6f78412844d17f6e69b370b417
     Pseudo is Norm-conserving, Zval =  5.0
     Generated by new atomic code, or converted to UPF format
     Using radial grid of  161 points,  1 beta functions with: 
                l(1) =   0

     atomic species   valence    mass     pseudopotential
        B              3.00    10.00000     B ( 1.00)
        N              5.00    14.00000     N ( 1.00)

     12 Sym. Ops. (no inversion) found


                                    s                        frac. trans.

      isym =  1     identity                                     

 cryst.   s( 1) = (     1          0          0      )
                  (     0          1          0      )
                  (     0          0          1      )

 cart.    s( 1) = (  1.0000000  0.0000000  0.0000000 )
                  (  0.0000000  1.0000000  0.0000000 )
                  (  0.0000000  0.0000000  1.0000000 )


      isym =  2     180 deg rotation - cart. axis [0,1,0]        

 cryst.   s( 2) = (    -1          0          0      )
                  (     1          1          0      )
                  (     0          0         -1      )

 cart.    s( 2) = ( -1.0000000  0.0000000  0.0000000 )
                  (  0.0000000  1.0000000  0.0000000 )
                  (  0.0000000  0.0000000 -1.0000000 )


      isym =  3     120 deg rotation - cryst. axis [0,0,1]       

 cryst.   s( 3) = (     0          1          0      )
                  (    -1         -1          0      )
                  (     0          0          1      )

 cart.    s( 3) = ( -0.5000000 -0.8660254  0.0000000 )
                  (  0.8660254 -0.5000000  0.0000000 )
                  (  0.0000000  0.0000000  1.0000000 )


      isym =  4     120 deg rotation - cryst. axis [0,0,-1]      

 cryst.   s( 4) = (    -1         -1          0      )
                  (     1          0          0      )
                  (     0          0          1      )

 cart.    s( 4) = ( -0.5000000  0.8660254  0.0000000 )
                  ( -0.8660254 -0.5000000  0.0000000 )
                  (  0.0000000  0.0000000  1.0000000 )


      isym =  5     180 deg rotation - cryst. axis [1,-1,0]      

 cryst.   s( 5) = (     0         -1          0      )
                  (    -1          0          0      )
                  (     0          0         -1      )

 cart.    s( 5) = (  0.5000000 -0.8660254  0.0000000 )
                  ( -0.8660254 -0.5000000  0.0000000 )
                  (  0.0000000  0.0000000 -1.0000000 )


      isym =  6     180 deg rotation - cryst. axis [2,1,0]       

 cryst.   s( 6) = (     1          1          0      )
                  (     0         -1          0      )
                  (     0          0         -1      )

 cart.    s( 6) = (  0.5000000  0.8660254  0.0000000 )
                  (  0.8660254 -0.5000000  0.0000000 )
                  (  0.0000000  0.0000000 -1.0000000 )


      isym =  7     inv. 180 deg rotation - cart. axis [0,0,1]   

 cryst.   s( 7) = (     1          0          0      )
                  (     0          1          0      )
                  (     0          0         -1      )

 cart.    s( 7) = (  1.0000000  0.0000000  0.0000000 )
                  (  0.0000000  1.0000000  0.0000000 )
                  (  0.0000000  0.0000000 -1.0000000 )


      isym =  8     inv. 180 deg rotation - cart. axis [1,0,0]   

 cryst.   s( 8) = (    -1          0          0      )
                  (     1          1          0      )
                  (     0          0          1      )

 cart.    s( 8) = ( -1.0000000  0.0000000  0.0000000 )
                  (  0.0000000  1.0000000  0.0000000 )
                  (  0.0000000  0.0000000  1.0000000 )


      isym =  9     inv.  60 deg rotation - cryst. axis [0,0,1]  

 cryst.   s( 9) = (    -1         -1          0      )
                  (     1          0          0      )
                  (     0          0         -1      )

 cart.    s( 9) = ( -0.5000000  0.8660254  0.0000000 )
                  ( -0.8660254 -0.5000000  0.0000000 )
                  (  0.0000000  0.0000000 -1.0000000 )


      isym = 10     inv.  60 deg rotation - cryst. axis [0,0,-1] 

 cryst.   s(10) = (     0          1          0      )
                  (    -1         -1          0      )
                  (     0          0         -1      )

 cart.    s(10) = ( -0.5000000 -0.8660254  0.0000000 )
                  (  0.8660254 -0.5000000  0.0000000 )
                  (  0.0000000  0.0000000 -1.0000000 )


      isym = 11     inv. 180 deg rotation - cryst. axis [0,1,0]  

 cryst.   s(11) = (     1          1          0      )
                  (     0         -1          0      )
                  (     0          0          1      )

 cart.    s(11) = (  0.5000000  0.8660254  0.0000000 )
                  (  0.8660254 -0.5000000  0.0000000 )
                  (  0.0000000  0.0000000  1.0000000 )


      isym = 12     inv. 180 deg rotation - cryst. axis [1,1,0]  

 cryst.   s(12) = (     0         -1          0      )
                  (    -1          0          0      )
                  (     0          0          1      )

 cart.    s(12) = (  0.5000000 -0.8660254  0.0000000 )
                  ( -0.8660254 -0.5000000  0.0000000 )
                  (  0.0000000  0.0000000  1.0000000 )


     point group D_3h (-62m)
     there are  6 classes
     the character table:

       E     2C3   3C2   s_h   2S3   3s_v 
A'_1   1.00  1.00  1.00  1.00  1.00  1.00
A'_2   1.00  1.00 -1.00  1.00  1.00 -1.00
E'     2.00 -1.00  0.00  2.00 -1.00  0.00
A''1   1.00  1.00  1.00 -1.00 -1.00 -1.00
A''2   1.00  1.00 -1.00 -1.00 -1.00  1.00
E''    2.00 -1.00  0.00 -2.00  1.00  0.00

     the symmetry operations in each class and the name of the first element:

     E        1
          identity                                               
     2C3      3    4
          120 deg rotation - cryst. axis [0,0,1]                 
     3C2      2    6    5
          180 deg rotation - cart. axis [0,1,0]                  
     s_h      7
          inv. 180 deg rotation - cart. axis [0,0,1]             
     2S3      9   10
          inv.  60 deg rotation - cryst. axis [0,0,1]            
     3s_v     8   11   12
          inv. 180 deg rotation - cart. axis [1,0,0]             

   Cartesian axes

     site n.     atom                  positions (alat units)
         1           B   tau(   1) = (   0.5000001   0.2886751   0.0000000  )
         2           N   tau(   2) = (  -0.5000001  -0.2886751   0.0000000  )
         3           B   tau(   3) = (  -0.5000001  -0.2886751   1.2910000  )
         4           N   tau(   4) = (   0.5000001   0.2886751   1.2910000  )

   Crystallographic axes

     site n.     atom                  positions (cryst. coord.)
         1           B   tau(   1) = (  0.6666667  0.3333333  0.0000000  )
         2           N   tau(   2) = ( -0.6666667 -0.3333333  0.0000000  )
         3           B   tau(   3) = ( -0.6666667 -0.3333333  0.5000000  )
         4           N   tau(   4) = (  0.6666667  0.3333333  0.5000000  )

     number of k points=   305
                       cart. coord. in units 2pi/alat
        k(    1) = (   0.0000000   0.0000000   0.0000000), wk =   0.0004340
        k(    2) = (   0.0000000   0.0000000   0.0484121), wk =   0.0008681
        k(    3) = (   0.0000000   0.0000000   0.0968242), wk =   0.0008681
        k(    4) = (   0.0000000   0.0000000   0.1452363), wk =   0.0008681
        k(    5) = (   0.0000000   0.0000000  -0.1936483), wk =   0.0004340
        k(    6) = (   0.0000000   0.0481125   0.0000000), wk =   0.0026042
        k(    7) = (   0.0000000   0.0481125   0.0484121), wk =   0.0052083
        k(    8) = (   0.0000000   0.0481125   0.0968242), wk =   0.0052083
        k(    9) = (   0.0000000   0.0481125   0.1452363), wk =   0.0052083
        k(   10) = (   0.0000000   0.0481125  -0.1936483), wk =   0.0026042
        k(   11) = (   0.0000000   0.0962250   0.0000000), wk =   0.0026042
        k(   12) = (   0.0000000   0.0962250   0.0484121), wk =   0.0052083
        k(   13) = (   0.0000000   0.0962250   0.0968242), wk =   0.0052083
        k(   14) = (   0.0000000   0.0962250   0.1452363), wk =   0.0052083
        k(   15) = (   0.0000000   0.0962250  -0.1936483), wk =   0.0026042
        k(   16) = (   0.0000000   0.1443376   0.0000000), wk =   0.0026042
        k(   17) = (   0.0000000   0.1443376   0.0484121), wk =   0.0052083
        k(   18) = (   0.0000000   0.1443376   0.0968242), wk =   0.0052083
        k(   19) = (   0.0000000   0.1443376   0.1452363), wk =   0.0052083
        k(   20) = (   0.0000000   0.1443376  -0.1936483), wk =   0.0026042
        k(   21) = (   0.0000000   0.1924501   0.0000000), wk =   0.0026042
        k(   22) = (   0.0000000   0.1924501   0.0484121), wk =   0.0052083
        k(   23) = (   0.0000000   0.1924501   0.0968242), wk =   0.0052083
        k(   24) = (   0.0000000   0.1924501   0.1452363), wk =   0.0052083
        k(   25) = (   0.0000000   0.1924501  -0.1936483), wk =   0.0026042
        k(   26) = (   0.0000000   0.2405626   0.0000000), wk =   0.0026042
        k(   27) = (   0.0000000   0.2405626   0.0484121), wk =   0.0052083
        k(   28) = (   0.0000000   0.2405626   0.0968242), wk =   0.0052083
        k(   29) = (   0.0000000   0.2405626   0.1452363), wk =   0.0052083
        k(   30) = (   0.0000000   0.2405626  -0.1936483), wk =   0.0026042
        k(   31) = (   0.0000000   0.2886751   0.0000000), wk =   0.0026042
        k(   32) = (   0.0000000   0.2886751   0.0484121), wk =   0.0052083
        k(   33) = (   0.0000000   0.2886751   0.0968242), wk =   0.0052083
        k(   34) = (   0.0000000   0.2886751   0.1452363), wk =   0.0052083
        k(   35) = (   0.0000000   0.2886751  -0.1936483), wk =   0.0026042
        k(   36) = (   0.0000000   0.3367877   0.0000000), wk =   0.0026042
        k(   37) = (   0.0000000   0.3367877   0.0484121), wk =   0.0052083
        k(   38) = (   0.0000000   0.3367877   0.0968242), wk =   0.0052083
        k(   39) = (   0.0000000   0.3367877   0.1452363), wk =   0.0052083
        k(   40) = (   0.0000000   0.3367877  -0.1936483), wk =   0.0026042
        k(   41) = (   0.0000000   0.3849002   0.0000000), wk =   0.0026042
        k(   42) = (   0.0000000   0.3849002   0.0484121), wk =   0.0052083
        k(   43) = (   0.0000000   0.3849002   0.0968242), wk =   0.0052083
        k(   44) = (   0.0000000   0.3849002   0.1452363), wk =   0.0052083
        k(   45) = (   0.0000000   0.3849002  -0.1936483), wk =   0.0026042
        k(   46) = (   0.0000000   0.4330127   0.0000000), wk =   0.0026042
        k(   47) = (   0.0000000   0.4330127   0.0484121), wk =   0.0052083
        k(   48) = (   0.0000000   0.4330127   0.0968242), wk =   0.0052083
        k(   49) = (   0.0000000   0.4330127   0.1452363), wk =   0.0052083
        k(   50) = (   0.0000000   0.4330127  -0.1936483), wk =   0.0026042
        k(   51) = (   0.0000000   0.4811252   0.0000000), wk =   0.0026042
        k(   52) = (   0.0000000   0.4811252   0.0484121), wk =   0.0052083
        k(   53) = (   0.0000000   0.4811252   0.0968242), wk =   0.0052083
        k(   54) = (   0.0000000   0.4811252   0.1452363), wk =   0.0052083
        k(   55) = (   0.0000000   0.4811252  -0.1936483), wk =   0.0026042
        k(   56) = (   0.0000000   0.5292377   0.0000000), wk =   0.0026042
        k(   57) = (   0.0000000   0.5292377   0.0484121), wk =   0.0052083
        k(   58) = (   0.0000000   0.5292377   0.0968242), wk =   0.0052083
        k(   59) = (   0.0000000   0.5292377   0.1452363), wk =   0.0052083
        k(   60) = (   0.0000000   0.5292377  -0.1936483), wk =   0.0026042
        k(   61) = (   0.0000000  -0.5773503   0.0000000), wk =   0.0013021
        k(   62) = (   0.0000000  -0.5773503   0.0484121), wk =   0.0026042
        k(   63) = (   0.0000000  -0.5773503   0.0968242), wk =   0.0026042
        k(   64) = (   0.0000000  -0.5773503   0.1452363), wk =   0.0026042
        k(   65) = (   0.0000000  -0.5773503  -0.1936483), wk =   0.0013021
        k(   66) = (   0.0416667   0.0721688   0.0000000), wk =   0.0026042
        k(   67) = (   0.0416667   0.0721688   0.0484121), wk =   0.0052083
        k(   68) = (   0.0416667   0.0721688   0.0968242), wk =   0.0052083
        k(   69) = (   0.0416667   0.0721688   0.1452363), wk =   0.0052083
        k(   70) = (   0.0416667   0.0721688  -0.1936483), wk =   0.0026042
        k(   71) = (   0.0416667   0.1202813   0.0000000), wk =   0.0052083
        k(   72) = (   0.0416667   0.1202813   0.0484121), wk =   0.0104167
        k(   73) = (   0.0416667   0.1202813   0.0968242), wk =   0.0104167
        k(   74) = (   0.0416667   0.1202813   0.1452363), wk =   0.0104167
        k(   75) = (   0.0416667   0.1202813  -0.1936483), wk =   0.0052083
        k(   76) = (   0.0416667   0.1683938   0.0000000), wk =   0.0052083
        k(   77) = (   0.0416667   0.1683938   0.0484121), wk =   0.0104167
        k(   78) = (   0.0416667   0.1683938   0.0968242), wk =   0.0104167
        k(   79) = (   0.0416667   0.1683938   0.1452363), wk =   0.0104167
        k(   80) = (   0.0416667   0.1683938  -0.1936483), wk =   0.0052083
        k(   81) = (   0.0416667   0.2165064   0.0000000), wk =   0.0052083
        k(   82) = (   0.0416667   0.2165064   0.0484121), wk =   0.0104167
        k(   83) = (   0.0416667   0.2165064   0.0968242), wk =   0.0104167
        k(   84) = (   0.0416667   0.2165064   0.1452363), wk =   0.0104167
        k(   85) = (   0.0416667   0.2165064  -0.1936483), wk =   0.0052083
        k(   86) = (   0.0416667   0.2646189   0.0000000), wk =   0.0052083
        k(   87) = (   0.0416667   0.2646189   0.0484121), wk =   0.0104167
        k(   88) = (   0.0416667   0.2646189   0.0968242), wk =   0.0104167
        k(   89) = (   0.0416667   0.2646189   0.1452363), wk =   0.0104167
        k(   90) = (   0.0416667   0.2646189  -0.1936483), wk =   0.0052083
        k(   91) = (   0.0416667   0.3127314   0.0000000), wk =   0.0052083
        k(   92) = (   0.0416667   0.3127314   0.0484121), wk =   0.0104167
        k(   93) = (   0.0416667   0.3127314   0.0968242), wk =   0.0104167
        k(   94) = (   0.0416667   0.3127314   0.1452363), wk =   0.0104167
        k(   95) = (   0.0416667   0.3127314  -0.1936483), wk =   0.0052083
        k(   96) = (   0.0416667   0.3608439   0.0000000), wk =   0.0052083
        k(   97) = (   0.0416667   0.3608439   0.0484121), wk =   0.0104167
        k(   98) = (   0.0416667   0.3608439   0.0968242), wk =   0.0104167
        k(   99) = (   0.0416667   0.3608439   0.1452363), wk =   0.0104167
        k(  100) = (   0.0416667   0.3608439  -0.1936483), wk =   0.0052083
        k(  101) = (   0.0416667   0.4089564   0.0000000), wk =   0.0052083
        k(  102) = (   0.0416667   0.4089564   0.0484121), wk =   0.0104167
        k(  103) = (   0.0416667   0.4089564   0.0968242), wk =   0.0104167
        k(  104) = (   0.0416667   0.4089564   0.1452363), wk =   0.0104167
        k(  105) = (   0.0416667   0.4089564  -0.1936483), wk =   0.0052083
        k(  106) = (   0.0416667   0.4570690   0.0000000), wk =   0.0052083
        k(  107) = (   0.0416667   0.4570690   0.0484121), wk =   0.0104167
        k(  108) = (   0.0416667   0.4570690   0.0968242), wk =   0.0104167
        k(  109) = (   0.0416667   0.4570690   0.1452363), wk =   0.0104167
        k(  110) = (   0.0416667   0.4570690  -0.1936483), wk =   0.0052083
        k(  111) = (   0.0416667   0.5051815   0.0000000), wk =   0.0052083
        k(  112) = (   0.0416667   0.5051815   0.0484121), wk =   0.0104167
        k(  113) = (   0.0416667   0.5051815   0.0968242), wk =   0.0104167
        k(  114) = (   0.0416667   0.5051815   0.1452363), wk =   0.0104167
        k(  115) = (   0.0416667   0.5051815  -0.1936483), wk =   0.0052083
        k(  116) = (   0.0416667   0.5532940   0.0000000), wk =   0.0052083
        k(  117) = (   0.0416667   0.5532940   0.0484121), wk =   0.0104167
        k(  118) = (   0.0416667   0.5532940   0.0968242), wk =   0.0104167
        k(  119) = (   0.0416667   0.5532940   0.1452363), wk =   0.0104167
        k(  120) = (   0.0416667   0.5532940  -0.1936483), wk =   0.0052083
        k(  121) = (   0.0833333   0.1443376   0.0000000), wk =   0.0026042
        k(  122) = (   0.0833333   0.1443376   0.0484121), wk =   0.0052083
        k(  123) = (   0.0833333   0.1443376   0.0968242), wk =   0.0052083
        k(  124) = (   0.0833333   0.1443376   0.1452363), wk =   0.0052083
        k(  125) = (   0.0833333   0.1443376  -0.1936483), wk =   0.0026042
        k(  126) = (   0.0833333   0.1924501   0.0000000), wk =   0.0052083
        k(  127) = (   0.0833333   0.1924501   0.0484121), wk =   0.0104167
        k(  128) = (   0.0833333   0.1924501   0.0968242), wk =   0.0104167
        k(  129) = (   0.0833333   0.1924501   0.1452363), wk =   0.0104167
        k(  130) = (   0.0833333   0.1924501  -0.1936483), wk =   0.0052083
        k(  131) = (   0.0833333   0.2405626   0.0000000), wk =   0.0052083
        k(  132) = (   0.0833333   0.2405626   0.0484121), wk =   0.0104167
        k(  133) = (   0.0833333   0.2405626   0.0968242), wk =   0.0104167
        k(  134) = (   0.0833333   0.2405626   0.1452363), wk =   0.0104167
        k(  135) = (   0.0833333   0.2405626  -0.1936483), wk =   0.0052083
        k(  136) = (   0.0833333   0.2886751   0.0000000), wk =   0.0052083
        k(  137) = (   0.0833333   0.2886751   0.0484121), wk =   0.0104167
        k(  138) = (   0.0833333   0.2886751   0.0968242), wk =   0.0104167
        k(  139) = (   0.0833333   0.2886751   0.1452363), wk =   0.0104167
        k(  140) = (   0.0833333   0.2886751  -0.1936483), wk =   0.0052083
        k(  141) = (   0.0833333   0.3367877   0.0000000), wk =   0.0052083
        k(  142) = (   0.0833333   0.3367877   0.0484121), wk =   0.0104167
        k(  143) = (   0.0833333   0.3367877   0.0968242), wk =   0.0104167
        k(  144) = (   0.0833333   0.3367877   0.1452363), wk =   0.0104167
        k(  145) = (   0.0833333   0.3367877  -0.1936483), wk =   0.0052083
        k(  146) = (   0.0833333   0.3849002   0.0000000), wk =   0.0052083
        k(  147) = (   0.0833333   0.3849002   0.0484121), wk =   0.0104167
        k(  148) = (   0.0833333   0.3849002   0.0968242), wk =   0.0104167
        k(  149) = (   0.0833333   0.3849002   0.1452363), wk =   0.0104167
        k(  150) = (   0.0833333   0.3849002  -0.1936483), wk =   0.0052083
        k(  151) = (   0.0833333   0.4330127   0.0000000), wk =   0.0052083
        k(  152) = (   0.0833333   0.4330127   0.0484121), wk =   0.0104167
        k(  153) = (   0.0833333   0.4330127   0.0968242), wk =   0.0104167
        k(  154) = (   0.0833333   0.4330127   0.1452363), wk =   0.0104167
        k(  155) = (   0.0833333   0.4330127  -0.1936483), wk =   0.0052083
        k(  156) = (   0.0833333   0.4811252   0.0000000), wk =   0.0052083
        k(  157) = (   0.0833333   0.4811252   0.0484121), wk =   0.0104167
        k(  158) = (   0.0833333   0.4811252   0.0968242), wk =   0.0104167
        k(  159) = (   0.0833333   0.4811252   0.1452363), wk =   0.0104167
        k(  160) = (   0.0833333   0.4811252  -0.1936483), wk =   0.0052083
        k(  161) = (   0.0833333   0.5292377   0.0000000), wk =   0.0052083
        k(  162) = (   0.0833333   0.5292377   0.0484121), wk =   0.0104167
        k(  163) = (   0.0833333   0.5292377   0.0968242), wk =   0.0104167
        k(  164) = (   0.0833333   0.5292377   0.1452363), wk =   0.0104167
        k(  165) = (   0.0833333   0.5292377  -0.1936483), wk =   0.0052083
        k(  166) = (   0.0833333   0.5773503   0.0000000), wk =   0.0026042
        k(  167) = (   0.0833333   0.5773503   0.0484121), wk =   0.0052083
        k(  168) = (   0.0833333   0.5773503   0.0968242), wk =   0.0052083
        k(  169) = (   0.0833333   0.5773503   0.1452363), wk =   0.0052083
        k(  170) = (   0.0833333   0.5773503  -0.1936483), wk =   0.0026042
        k(  171) = (   0.1250000   0.2165064   0.0000000), wk =   0.0026042
        k(  172) = (   0.1250000   0.2165064   0.0484121), wk =   0.0052083
        k(  173) = (   0.1250000   0.2165064   0.0968242), wk =   0.0052083
        k(  174) = (   0.1250000   0.2165064   0.1452363), wk =   0.0052083
        k(  175) = (   0.1250000   0.2165064  -0.1936483), wk =   0.0026042
        k(  176) = (   0.1250000   0.2646189   0.0000000), wk =   0.0052083
        k(  177) = (   0.1250000   0.2646189   0.0484121), wk =   0.0104167
        k(  178) = (   0.1250000   0.2646189   0.0968242), wk =   0.0104167
        k(  179) = (   0.1250000   0.2646189   0.1452363), wk =   0.0104167
        k(  180) = (   0.1250000   0.2646189  -0.1936483), wk =   0.0052083
        k(  181) = (   0.1250000   0.3127314   0.0000000), wk =   0.0052083
        k(  182) = (   0.1250000   0.3127314   0.0484121), wk =   0.0104167
        k(  183) = (   0.1250000   0.3127314   0.0968242), wk =   0.0104167
        k(  184) = (   0.1250000   0.3127314   0.1452363), wk =   0.0104167
        k(  185) = (   0.1250000   0.3127314  -0.1936483), wk =   0.0052083
        k(  186) = (   0.1250000   0.3608439   0.0000000), wk =   0.0052083
        k(  187) = (   0.1250000   0.3608439   0.0484121), wk =   0.0104167
        k(  188) = (   0.1250000   0.3608439   0.0968242), wk =   0.0104167
        k(  189) = (   0.1250000   0.3608439   0.1452363), wk =   0.0104167
        k(  190) = (   0.1250000   0.3608439  -0.1936483), wk =   0.0052083
        k(  191) = (   0.1250000   0.4089564   0.0000000), wk =   0.0052083
        k(  192) = (   0.1250000   0.4089564   0.0484121), wk =   0.0104167
        k(  193) = (   0.1250000   0.4089564   0.0968242), wk =   0.0104167
        k(  194) = (   0.1250000   0.4089564   0.1452363), wk =   0.0104167
        k(  195) = (   0.1250000   0.4089564  -0.1936483), wk =   0.0052083
        k(  196) = (   0.1250000   0.4570690   0.0000000), wk =   0.0052083
        k(  197) = (   0.1250000   0.4570690   0.0484121), wk =   0.0104167
        k(  198) = (   0.1250000   0.4570690   0.0968242), wk =   0.0104167
        k(  199) = (   0.1250000   0.4570690   0.1452363), wk =   0.0104167
        k(  200) = (   0.1250000   0.4570690  -0.1936483), wk =   0.0052083
        k(  201) = (   0.1250000   0.5051815   0.0000000), wk =   0.0052083
        k(  202) = (   0.1250000   0.5051815   0.0484121), wk =   0.0104167
        k(  203) = (   0.1250000   0.5051815   0.0968242), wk =   0.0104167
        k(  204) = (   0.1250000   0.5051815   0.1452363), wk =   0.0104167
        k(  205) = (   0.1250000   0.5051815  -0.1936483), wk =   0.0052083
        k(  206) = (   0.1250000   0.5532940   0.0000000), wk =   0.0052083
        k(  207) = (   0.1250000   0.5532940   0.0484121), wk =   0.0104167
        k(  208) = (   0.1250000   0.5532940   0.0968242), wk =   0.0104167
        k(  209) = (   0.1250000   0.5532940   0.1452363), wk =   0.0104167
        k(  210) = (   0.1250000   0.5532940  -0.1936483), wk =   0.0052083
        k(  211) = (   0.1666667   0.2886751   0.0000000), wk =   0.0026042
        k(  212) = (   0.1666667   0.2886751   0.0484121), wk =   0.0052083
        k(  213) = (   0.1666667   0.2886751   0.0968242), wk =   0.0052083
        k(  214) = (   0.1666667   0.2886751   0.1452363), wk =   0.0052083
        k(  215) = (   0.1666667   0.2886751  -0.1936483), wk =   0.0026042
        k(  216) = (   0.1666667   0.3367877   0.0000000), wk =   0.0052083
        k(  217) = (   0.1666667   0.3367877   0.0484121), wk =   0.0104167
        k(  218) = (   0.1666667   0.3367877   0.0968242), wk =   0.0104167
        k(  219) = (   0.1666667   0.3367877   0.1452363), wk =   0.0104167
        k(  220) = (   0.1666667   0.3367877  -0.1936483), wk =   0.0052083
        k(  221) = (   0.1666667   0.3849002   0.0000000), wk =   0.0052083
        k(  222) = (   0.1666667   0.3849002   0.0484121), wk =   0.0104167
        k(  223) = (   0.1666667   0.3849002   0.0968242), wk =   0.0104167
        k(  224) = (   0.1666667   0.3849002   0.1452363), wk =   0.0104167
        k(  225) = (   0.1666667   0.3849002  -0.1936483), wk =   0.0052083
        k(  226) = (   0.1666667   0.4330127   0.0000000), wk =   0.0052083
        k(  227) = (   0.1666667   0.4330127   0.0484121), wk =   0.0104167
        k(  228) = (   0.1666667   0.4330127   0.0968242), wk =   0.0104167
        k(  229) = (   0.1666667   0.4330127   0.1452363), wk =   0.0104167
        k(  230) = (   0.1666667   0.4330127  -0.1936483), wk =   0.0052083
        k(  231) = (   0.1666667   0.4811252   0.0000000), wk =   0.0052083
        k(  232) = (   0.1666667   0.4811252   0.0484121), wk =   0.0104167
        k(  233) = (   0.1666667   0.4811252   0.0968242), wk =   0.0104167
        k(  234) = (   0.1666667   0.4811252   0.1452363), wk =   0.0104167
        k(  235) = (   0.1666667   0.4811252  -0.1936483), wk =   0.0052083
        k(  236) = (   0.1666667   0.5292377   0.0000000), wk =   0.0052083
        k(  237) = (   0.1666667   0.5292377   0.0484121), wk =   0.0104167
        k(  238) = (   0.1666667   0.5292377   0.0968242), wk =   0.0104167
        k(  239) = (   0.1666667   0.5292377   0.1452363), wk =   0.0104167
        k(  240) = (   0.1666667   0.5292377  -0.1936483), wk =   0.0052083
        k(  241) = (   0.1666667   0.5773503   0.0000000), wk =   0.0026042
        k(  242) = (   0.1666667   0.5773503   0.0484121), wk =   0.0052083
        k(  243) = (   0.1666667   0.5773503   0.0968242), wk =   0.0052083
        k(  244) = (   0.1666667   0.5773503   0.1452363), wk =   0.0052083
        k(  245) = (   0.1666667   0.5773503  -0.1936483), wk =   0.0026042
        k(  246) = (   0.2083333   0.3608439   0.0000000), wk =   0.0026042
        k(  247) = (   0.2083333   0.3608439   0.0484121), wk =   0.0052083
        k(  248) = (   0.2083333   0.3608439   0.0968242), wk =   0.0052083
        k(  249) = (   0.2083333   0.3608439   0.1452363), wk =   0.0052083
        k(  250) = (   0.2083333   0.3608439  -0.1936483), wk =   0.0026042
        k(  251) = (   0.2083333   0.4089564   0.0000000), wk =   0.0052083
        k(  252) = (   0.2083333   0.4089564   0.0484121), wk =   0.0104167
        k(  253) = (   0.2083333   0.4089564   0.0968242), wk =   0.0104167
        k(  254) = (   0.2083333   0.4089564   0.1452363), wk =   0.0104167
        k(  255) = (   0.2083333   0.4089564  -0.1936483), wk =   0.0052083
        k(  256) = (   0.2083333   0.4570690   0.0000000), wk =   0.0052083
        k(  257) = (   0.2083333   0.4570690   0.0484121), wk =   0.0104167
        k(  258) = (   0.2083333   0.4570690   0.0968242), wk =   0.0104167
        k(  259) = (   0.2083333   0.4570690   0.1452363), wk =   0.0104167
        k(  260) = (   0.2083333   0.4570690  -0.1936483), wk =   0.0052083
        k(  261) = (   0.2083333   0.5051815   0.0000000), wk =   0.0052083
        k(  262) = (   0.2083333   0.5051815   0.0484121), wk =   0.0104167
        k(  263) = (   0.2083333   0.5051815   0.0968242), wk =   0.0104167
        k(  264) = (   0.2083333   0.5051815   0.1452363), wk =   0.0104167
        k(  265) = (   0.2083333   0.5051815  -0.1936483), wk =   0.0052083
        k(  266) = (   0.2083333   0.5532940   0.0000000), wk =   0.0052083
        k(  267) = (   0.2083333   0.5532940   0.0484121), wk =   0.0104167
        k(  268) = (   0.2083333   0.5532940   0.0968242), wk =   0.0104167
        k(  269) = (   0.2083333   0.5532940   0.1452363), wk =   0.0104167
        k(  270) = (   0.2083333   0.5532940  -0.1936483), wk =   0.0052083
        k(  271) = (   0.2500000   0.4330127   0.0000000), wk =   0.0026042
        k(  272) = (   0.2500000   0.4330127   0.0484121), wk =   0.0052083
        k(  273) = (   0.2500000   0.4330127   0.0968242), wk =   0.0052083
        k(  274) = (   0.2500000   0.4330127   0.1452363), wk =   0.0052083
        k(  275) = (   0.2500000   0.4330127  -0.1936483), wk =   0.0026042
        k(  276) = (   0.2500000   0.4811252   0.0000000), wk =   0.0052083
        k(  277) = (   0.2500000   0.4811252   0.0484121), wk =   0.0104167
        k(  278) = (   0.2500000   0.4811252   0.0968242), wk =   0.0104167
        k(  279) = (   0.2500000   0.4811252   0.1452363), wk =   0.0104167
        k(  280) = (   0.2500000   0.4811252  -0.1936483), wk =   0.0052083
        k(  281) = (   0.2500000   0.5292377   0.0000000), wk =   0.0052083
        k(  282) = (   0.2500000   0.5292377   0.0484121), wk =   0.0104167
        k(  283) = (   0.2500000   0.5292377   0.0968242), wk =   0.0104167
        k(  284) = (   0.2500000   0.5292377   0.1452363), wk =   0.0104167
        k(  285) = (   0.2500000   0.5292377  -0.1936483), wk =   0.0052083
        k(  286) = (   0.2500000   0.5773503   0.0000000), wk =   0.0026042
        k(  287) = (   0.2500000   0.5773503   0.0484121), wk =   0.0052083
        k(  288) = (   0.2500000   0.5773503   0.0968242), wk =   0.0052083
        k(  289) = (   0.2500000   0.5773503   0.1452363), wk =   0.0052083
        k(  290) = (   0.2500000   0.5773503  -0.1936483), wk =   0.0026042
        k(  291) = (   0.2916667   0.5051815   0.0000000), wk =   0.0026042
        k(  292) = (   0.2916667   0.5051815   0.0484121), wk =   0.0052083
        k(  293) = (   0.2916667   0.5051815   0.0968242), wk =   0.0052083
        k(  294) = (   0.2916667   0.5051815   0.1452363), wk =   0.0052083
        k(  295) = (   0.2916667   0.5051815  -0.1936483), wk =   0.0026042
        k(  296) = (   0.2916667   0.5532940   0.0000000), wk =   0.0052083
        k(  297) = (   0.2916667   0.5532940   0.0484121), wk =   0.0104167
        k(  298) = (   0.2916667   0.5532940   0.0968242), wk =   0.0104167
        k(  299) = (   0.2916667   0.5532940   0.1452363), wk =   0.0104167
        k(  300) = (   0.2916667   0.5532940  -0.1936483), wk =   0.0052083
        k(  301) = (   0.3333333   0.5773503   0.0000000), wk =   0.0008681
        k(  302) = (   0.3333333   0.5773503   0.0484121), wk =   0.0017361
        k(  303) = (   0.3333333   0.5773503   0.0968242), wk =   0.0017361
        k(  304) = (   0.3333333   0.5773503   0.1452363), wk =   0.0017361
        k(  305) = (   0.3333333   0.5773503  -0.1936483), wk =   0.0008681

                       cryst. coord.
        k(    1) = (   0.0000000   0.0000000   0.0000000), wk =   0.0004340
        k(    2) = (   0.0000000   0.0000000   0.1250000), wk =   0.0008681
        k(    3) = (   0.0000000   0.0000000   0.2500000), wk =   0.0008681
        k(    4) = (   0.0000000   0.0000000   0.3750000), wk =   0.0008681
        k(    5) = (   0.0000000   0.0000000  -0.5000000), wk =   0.0004340
        k(    6) = (   0.0000000   0.0416667   0.0000000), wk =   0.0026042
        k(    7) = (   0.0000000   0.0416667   0.1250000), wk =   0.0052083
        k(    8) = (   0.0000000   0.0416667   0.2500000), wk =   0.0052083
        k(    9) = (   0.0000000   0.0416667   0.3750000), wk =   0.0052083
        k(   10) = (   0.0000000   0.0416667  -0.5000000), wk =   0.0026042
        k(   11) = (   0.0000000   0.0833333   0.0000000), wk =   0.0026042
        k(   12) = (   0.0000000   0.0833333   0.1250000), wk =   0.0052083
        k(   13) = (   0.0000000   0.0833333   0.2500000), wk =   0.0052083
        k(   14) = (   0.0000000   0.0833333   0.3750000), wk =   0.0052083
        k(   15) = (   0.0000000   0.0833333  -0.5000000), wk =   0.0026042
        k(   16) = (   0.0000000   0.1250000   0.0000000), wk =   0.0026042
        k(   17) = (   0.0000000   0.1250000   0.1250000), wk =   0.0052083
        k(   18) = (   0.0000000   0.1250000   0.2500000), wk =   0.0052083
        k(   19) = (   0.0000000   0.1250000   0.3750000), wk =   0.0052083
        k(   20) = (   0.0000000   0.1250000  -0.5000000), wk =   0.0026042
        k(   21) = (   0.0000000   0.1666667   0.0000000), wk =   0.0026042
        k(   22) = (   0.0000000   0.1666667   0.1250000), wk =   0.0052083
        k(   23) = (   0.0000000   0.1666667   0.2500000), wk =   0.0052083
        k(   24) = (   0.0000000   0.1666667   0.3750000), wk =   0.0052083
        k(   25) = (   0.0000000   0.1666667  -0.5000000), wk =   0.0026042
        k(   26) = (   0.0000000   0.2083333   0.0000000), wk =   0.0026042
        k(   27) = (   0.0000000   0.2083333   0.1250000), wk =   0.0052083
        k(   28) = (   0.0000000   0.2083333   0.2500000), wk =   0.0052083
        k(   29) = (   0.0000000   0.2083333   0.3750000), wk =   0.0052083
        k(   30) = (   0.0000000   0.2083333  -0.5000000), wk =   0.0026042
        k(   31) = (   0.0000000   0.2500000   0.0000000), wk =   0.0026042
        k(   32) = (   0.0000000   0.2500000   0.1250000), wk =   0.0052083
        k(   33) = (   0.0000000   0.2500000   0.2500000), wk =   0.0052083
        k(   34) = (   0.0000000   0.2500000   0.3750000), wk =   0.0052083
        k(   35) = (   0.0000000   0.2500000  -0.5000000), wk =   0.0026042
        k(   36) = (   0.0000000   0.2916667   0.0000000), wk =   0.0026042
        k(   37) = (   0.0000000   0.2916667   0.1250000), wk =   0.0052083
        k(   38) = (   0.0000000   0.2916667   0.2500000), wk =   0.0052083
        k(   39) = (   0.0000000   0.2916667   0.3750000), wk =   0.0052083
        k(   40) = (   0.0000000   0.2916667  -0.5000000), wk =   0.0026042
        k(   41) = (   0.0000000   0.3333333   0.0000000), wk =   0.0026042
        k(   42) = (   0.0000000   0.3333333   0.1250000), wk =   0.0052083
        k(   43) = (   0.0000000   0.3333333   0.2500000), wk =   0.0052083
        k(   44) = (   0.0000000   0.3333333   0.3750000), wk =   0.0052083
        k(   45) = (   0.0000000   0.3333333  -0.5000000), wk =   0.0026042
        k(   46) = (   0.0000000   0.3750000   0.0000000), wk =   0.0026042
        k(   47) = (   0.0000000   0.3750000   0.1250000), wk =   0.0052083
        k(   48) = (   0.0000000   0.3750000   0.2500000), wk =   0.0052083
        k(   49) = (   0.0000000   0.3750000   0.3750000), wk =   0.0052083
        k(   50) = (   0.0000000   0.3750000  -0.5000000), wk =   0.0026042
        k(   51) = (   0.0000000   0.4166667   0.0000000), wk =   0.0026042
        k(   52) = (   0.0000000   0.4166667   0.1250000), wk =   0.0052083
        k(   53) = (   0.0000000   0.4166667   0.2500000), wk =   0.0052083
        k(   54) = (   0.0000000   0.4166667   0.3750000), wk =   0.0052083
        k(   55) = (   0.0000000   0.4166667  -0.5000000), wk =   0.0026042
        k(   56) = (   0.0000000   0.4583333   0.0000000), wk =   0.0026042
        k(   57) = (   0.0000000   0.4583333   0.1250000), wk =   0.0052083
        k(   58) = (   0.0000000   0.4583333   0.2500000), wk =   0.0052083
        k(   59) = (   0.0000000   0.4583333   0.3750000), wk =   0.0052083
        k(   60) = (   0.0000000   0.4583333  -0.5000000), wk =   0.0026042
        k(   61) = (   0.0000000  -0.5000000   0.0000000), wk =   0.0013021
        k(   62) = (   0.0000000  -0.5000000   0.1250000), wk =   0.0026042
        k(   63) = (   0.0000000  -0.5000000   0.2500000), wk =   0.0026042
        k(   64) = (   0.0000000  -0.5000000   0.3750000), wk =   0.0026042
        k(   65) = (   0.0000000  -0.5000000  -0.5000000), wk =   0.0013021
        k(   66) = (   0.0416667   0.0416667   0.0000000), wk =   0.0026042
        k(   67) = (   0.0416667   0.0416667   0.1250000), wk =   0.0052083
        k(   68) = (   0.0416667   0.0416667   0.2500000), wk =   0.0052083
        k(   69) = (   0.0416667   0.0416667   0.3750000), wk =   0.0052083
        k(   70) = (   0.0416667   0.0416667  -0.5000000), wk =   0.0026042
        k(   71) = (   0.0416667   0.0833333   0.0000000), wk =   0.0052083
        k(   72) = (   0.0416667   0.0833333   0.1250000), wk =   0.0104167
        k(   73) = (   0.0416667   0.0833333   0.2500000), wk =   0.0104167
        k(   74) = (   0.0416667   0.0833333   0.3750000), wk =   0.0104167
        k(   75) = (   0.0416667   0.0833333  -0.5000000), wk =   0.0052083
        k(   76) = (   0.0416667   0.1250000   0.0000000), wk =   0.0052083
        k(   77) = (   0.0416667   0.1250000   0.1250000), wk =   0.0104167
        k(   78) = (   0.0416667   0.1250000   0.2500000), wk =   0.0104167
        k(   79) = (   0.0416667   0.1250000   0.3750000), wk =   0.0104167
        k(   80) = (   0.0416667   0.1250000  -0.5000000), wk =   0.0052083
        k(   81) = (   0.0416667   0.1666667   0.0000000), wk =   0.0052083
        k(   82) = (   0.0416667   0.1666667   0.1250000), wk =   0.0104167
        k(   83) = (   0.0416667   0.1666667   0.2500000), wk =   0.0104167
        k(   84) = (   0.0416667   0.1666667   0.3750000), wk =   0.0104167
        k(   85) = (   0.0416667   0.1666667  -0.5000000), wk =   0.0052083
        k(   86) = (   0.0416667   0.2083333   0.0000000), wk =   0.0052083
        k(   87) = (   0.0416667   0.2083333   0.1250000), wk =   0.0104167
        k(   88) = (   0.0416667   0.2083333   0.2500000), wk =   0.0104167
        k(   89) = (   0.0416667   0.2083333   0.3750000), wk =   0.0104167
        k(   90) = (   0.0416667   0.2083333  -0.5000000), wk =   0.0052083
        k(   91) = (   0.0416667   0.2500000   0.0000000), wk =   0.0052083
        k(   92) = (   0.0416667   0.2500000   0.1250000), wk =   0.0104167
        k(   93) = (   0.0416667   0.2500000   0.2500000), wk =   0.0104167
        k(   94) = (   0.0416667   0.2500000   0.3750000), wk =   0.0104167
        k(   95) = (   0.0416667   0.2500000  -0.5000000), wk =   0.0052083
        k(   96) = (   0.0416667   0.2916667   0.0000000), wk =   0.0052083
        k(   97) = (   0.0416667   0.2916667   0.1250000), wk =   0.0104167
        k(   98) = (   0.0416667   0.2916667   0.2500000), wk =   0.0104167
        k(   99) = (   0.0416667   0.2916667   0.3750000), wk =   0.0104167
        k(  100) = (   0.0416667   0.2916667  -0.5000000), wk =   0.0052083
        k(  101) = (   0.0416667   0.3333333   0.0000000), wk =   0.0052083
        k(  102) = (   0.0416667   0.3333333   0.1250000), wk =   0.0104167
        k(  103) = (   0.0416667   0.3333333   0.2500000), wk =   0.0104167
        k(  104) = (   0.0416667   0.3333333   0.3750000), wk =   0.0104167
        k(  105) = (   0.0416667   0.3333333  -0.5000000), wk =   0.0052083
        k(  106) = (   0.0416667   0.3750000   0.0000000), wk =   0.0052083
        k(  107) = (   0.0416667   0.3750000   0.1250000), wk =   0.0104167
        k(  108) = (   0.0416667   0.3750000   0.2500000), wk =   0.0104167
        k(  109) = (   0.0416667   0.3750000   0.3750000), wk =   0.0104167
        k(  110) = (   0.0416667   0.3750000  -0.5000000), wk =   0.0052083
        k(  111) = (   0.0416667   0.4166667   0.0000000), wk =   0.0052083
        k(  112) = (   0.0416667   0.4166667   0.1250000), wk =   0.0104167
        k(  113) = (   0.0416667   0.4166667   0.2500000), wk =   0.0104167
        k(  114) = (   0.0416667   0.4166667   0.3750000), wk =   0.0104167
        k(  115) = (   0.0416667   0.4166667  -0.5000000), wk =   0.0052083
        k(  116) = (   0.0416667   0.4583333   0.0000000), wk =   0.0052083
        k(  117) = (   0.0416667   0.4583333   0.1250000), wk =   0.0104167
        k(  118) = (   0.0416667   0.4583333   0.2500000), wk =   0.0104167
        k(  119) = (   0.0416667   0.4583333   0.3750000), wk =   0.0104167
        k(  120) = (   0.0416667   0.4583333  -0.5000000), wk =   0.0052083
        k(  121) = (   0.0833333   0.0833333   0.0000000), wk =   0.0026042
        k(  122) = (   0.0833333   0.0833333   0.1250000), wk =   0.0052083
        k(  123) = (   0.0833333   0.0833333   0.2500000), wk =   0.0052083
        k(  124) = (   0.0833333   0.0833333   0.3750000), wk =   0.0052083
        k(  125) = (   0.0833333   0.0833333  -0.5000000), wk =   0.0026042
        k(  126) = (   0.0833333   0.1250000   0.0000000), wk =   0.0052083
        k(  127) = (   0.0833333   0.1250000   0.1250000), wk =   0.0104167
        k(  128) = (   0.0833333   0.1250000   0.2500000), wk =   0.0104167
        k(  129) = (   0.0833333   0.1250000   0.3750000), wk =   0.0104167
        k(  130) = (   0.0833333   0.1250000  -0.5000000), wk =   0.0052083
        k(  131) = (   0.0833333   0.1666667   0.0000000), wk =   0.0052083
        k(  132) = (   0.0833333   0.1666667   0.1250000), wk =   0.0104167
        k(  133) = (   0.0833333   0.1666667   0.2500000), wk =   0.0104167
        k(  134) = (   0.0833333   0.1666667   0.3750000), wk =   0.0104167
        k(  135) = (   0.0833333   0.1666667  -0.5000000), wk =   0.0052083
        k(  136) = (   0.0833333   0.2083333   0.0000000), wk =   0.0052083
        k(  137) = (   0.0833333   0.2083333   0.1250000), wk =   0.0104167
        k(  138) = (   0.0833333   0.2083333   0.2500000), wk =   0.0104167
        k(  139) = (   0.0833333   0.2083333   0.3750000), wk =   0.0104167
        k(  140) = (   0.0833333   0.2083333  -0.5000000), wk =   0.0052083
        k(  141) = (   0.0833333   0.2500000   0.0000000), wk =   0.0052083
        k(  142) = (   0.0833333   0.2500000   0.1250000), wk =   0.0104167
        k(  143) = (   0.0833333   0.2500000   0.2500000), wk =   0.0104167
        k(  144) = (   0.0833333   0.2500000   0.3750000), wk =   0.0104167
        k(  145) = (   0.0833333   0.2500000  -0.5000000), wk =   0.0052083
        k(  146) = (   0.0833333   0.2916667   0.0000000), wk =   0.0052083
        k(  147) = (   0.0833333   0.2916667   0.1250000), wk =   0.0104167
        k(  148) = (   0.0833333   0.2916667   0.2500000), wk =   0.0104167
        k(  149) = (   0.0833333   0.2916667   0.3750000), wk =   0.0104167
        k(  150) = (   0.0833333   0.2916667  -0.5000000), wk =   0.0052083
        k(  151) = (   0.0833333   0.3333333   0.0000000), wk =   0.0052083
        k(  152) = (   0.0833333   0.3333333   0.1250000), wk =   0.0104167
        k(  153) = (   0.0833333   0.3333333   0.2500000), wk =   0.0104167
        k(  154) = (   0.0833333   0.3333333   0.3750000), wk =   0.0104167
        k(  155) = (   0.0833333   0.3333333  -0.5000000), wk =   0.0052083
        k(  156) = (   0.0833333   0.3750000   0.0000000), wk =   0.0052083
        k(  157) = (   0.0833333   0.3750000   0.1250000), wk =   0.0104167
        k(  158) = (   0.0833333   0.3750000   0.2500000), wk =   0.0104167
        k(  159) = (   0.0833333   0.3750000   0.3750000), wk =   0.0104167
        k(  160) = (   0.0833333   0.3750000  -0.5000000), wk =   0.0052083
        k(  161) = (   0.0833333   0.4166667   0.0000000), wk =   0.0052083
        k(  162) = (   0.0833333   0.4166667   0.1250000), wk =   0.0104167
        k(  163) = (   0.0833333   0.4166667   0.2500000), wk =   0.0104167
        k(  164) = (   0.0833333   0.4166667   0.3750000), wk =   0.0104167
        k(  165) = (   0.0833333   0.4166667  -0.5000000), wk =   0.0052083
        k(  166) = (   0.0833333   0.4583333   0.0000000), wk =   0.0026042
        k(  167) = (   0.0833333   0.4583333   0.1250000), wk =   0.0052083
        k(  168) = (   0.0833333   0.4583333   0.2500000), wk =   0.0052083
        k(  169) = (   0.0833333   0.4583333   0.3750000), wk =   0.0052083
        k(  170) = (   0.0833333   0.4583333  -0.5000000), wk =   0.0026042
        k(  171) = (   0.1250000   0.1250000   0.0000000), wk =   0.0026042
        k(  172) = (   0.1250000   0.1250000   0.1250000), wk =   0.0052083
        k(  173) = (   0.1250000   0.1250000   0.2500000), wk =   0.0052083
        k(  174) = (   0.1250000   0.1250000   0.3750000), wk =   0.0052083
        k(  175) = (   0.1250000   0.1250000  -0.5000000), wk =   0.0026042
        k(  176) = (   0.1250000   0.1666667   0.0000000), wk =   0.0052083
        k(  177) = (   0.1250000   0.1666667   0.1250000), wk =   0.0104167
        k(  178) = (   0.1250000   0.1666667   0.2500000), wk =   0.0104167
        k(  179) = (   0.1250000   0.1666667   0.3750000), wk =   0.0104167
        k(  180) = (   0.1250000   0.1666667  -0.5000000), wk =   0.0052083
        k(  181) = (   0.1250000   0.2083333   0.0000000), wk =   0.0052083
        k(  182) = (   0.1250000   0.2083333   0.1250000), wk =   0.0104167
        k(  183) = (   0.1250000   0.2083333   0.2500000), wk =   0.0104167
        k(  184) = (   0.1250000   0.2083333   0.3750000), wk =   0.0104167
        k(  185) = (   0.1250000   0.2083333  -0.5000000), wk =   0.0052083
        k(  186) = (   0.1250000   0.2500000   0.0000000), wk =   0.0052083
        k(  187) = (   0.1250000   0.2500000   0.1250000), wk =   0.0104167
        k(  188) = (   0.1250000   0.2500000   0.2500000), wk =   0.0104167
        k(  189) = (   0.1250000   0.2500000   0.3750000), wk =   0.0104167
        k(  190) = (   0.1250000   0.2500000  -0.5000000), wk =   0.0052083
        k(  191) = (   0.1250000   0.2916667   0.0000000), wk =   0.0052083
        k(  192) = (   0.1250000   0.2916667   0.1250000), wk =   0.0104167
        k(  193) = (   0.1250000   0.2916667   0.2500000), wk =   0.0104167
        k(  194) = (   0.1250000   0.2916667   0.3750000), wk =   0.0104167
        k(  195) = (   0.1250000   0.2916667  -0.5000000), wk =   0.0052083
        k(  196) = (   0.1250000   0.3333333   0.0000000), wk =   0.0052083
        k(  197) = (   0.1250000   0.3333333   0.1250000), wk =   0.0104167
        k(  198) = (   0.1250000   0.3333333   0.2500000), wk =   0.0104167
        k(  199) = (   0.1250000   0.3333333   0.3750000), wk =   0.0104167
        k(  200) = (   0.1250000   0.3333333  -0.5000000), wk =   0.0052083
        k(  201) = (   0.1250000   0.3750000   0.0000000), wk =   0.0052083
        k(  202) = (   0.1250000   0.3750000   0.1250000), wk =   0.0104167
        k(  203) = (   0.1250000   0.3750000   0.2500000), wk =   0.0104167
        k(  204) = (   0.1250000   0.3750000   0.3750000), wk =   0.0104167
        k(  205) = (   0.1250000   0.3750000  -0.5000000), wk =   0.0052083
        k(  206) = (   0.1250000   0.4166667   0.0000000), wk =   0.0052083
        k(  207) = (   0.1250000   0.4166667   0.1250000), wk =   0.0104167
        k(  208) = (   0.1250000   0.4166667   0.2500000), wk =   0.0104167
        k(  209) = (   0.1250000   0.4166667   0.3750000), wk =   0.0104167
        k(  210) = (   0.1250000   0.4166667  -0.5000000), wk =   0.0052083
        k(  211) = (   0.1666667   0.1666667   0.0000000), wk =   0.0026042
        k(  212) = (   0.1666667   0.1666667   0.1250000), wk =   0.0052083
        k(  213) = (   0.1666667   0.1666667   0.2500000), wk =   0.0052083
        k(  214) = (   0.1666667   0.1666667   0.3750000), wk =   0.0052083
        k(  215) = (   0.1666667   0.1666667  -0.5000000), wk =   0.0026042
        k(  216) = (   0.1666667   0.2083333   0.0000000), wk =   0.0052083
        k(  217) = (   0.1666667   0.2083333   0.1250000), wk =   0.0104167
        k(  218) = (   0.1666667   0.2083333   0.2500000), wk =   0.0104167
        k(  219) = (   0.1666667   0.2083333   0.3750000), wk =   0.0104167
        k(  220) = (   0.1666667   0.2083333  -0.5000000), wk =   0.0052083
        k(  221) = (   0.1666667   0.2500000   0.0000000), wk =   0.0052083
        k(  222) = (   0.1666667   0.2500000   0.1250000), wk =   0.0104167
        k(  223) = (   0.1666667   0.2500000   0.2500000), wk =   0.0104167
        k(  224) = (   0.1666667   0.2500000   0.3750000), wk =   0.0104167
        k(  225) = (   0.1666667   0.2500000  -0.5000000), wk =   0.0052083
        k(  226) = (   0.1666667   0.2916667   0.0000000), wk =   0.0052083
        k(  227) = (   0.1666667   0.2916667   0.1250000), wk =   0.0104167
        k(  228) = (   0.1666667   0.2916667   0.2500000), wk =   0.0104167
        k(  229) = (   0.1666667   0.2916667   0.3750000), wk =   0.0104167
        k(  230) = (   0.1666667   0.2916667  -0.5000000), wk =   0.0052083
        k(  231) = (   0.1666667   0.3333333   0.0000000), wk =   0.0052083
        k(  232) = (   0.1666667   0.3333333   0.1250000), wk =   0.0104167
        k(  233) = (   0.1666667   0.3333333   0.2500000), wk =   0.0104167
        k(  234) = (   0.1666667   0.3333333   0.3750000), wk =   0.0104167
        k(  235) = (   0.1666667   0.3333333  -0.5000000), wk =   0.0052083
        k(  236) = (   0.1666667   0.3750000   0.0000000), wk =   0.0052083
        k(  237) = (   0.1666667   0.3750000   0.1250000), wk =   0.0104167
        k(  238) = (   0.1666667   0.3750000   0.2500000), wk =   0.0104167
        k(  239) = (   0.1666667   0.3750000   0.3750000), wk =   0.0104167
        k(  240) = (   0.1666667   0.3750000  -0.5000000), wk =   0.0052083
        k(  241) = (   0.1666667   0.4166667   0.0000000), wk =   0.0026042
        k(  242) = (   0.1666667   0.4166667   0.1250000), wk =   0.0052083
        k(  243) = (   0.1666667   0.4166667   0.2500000), wk =   0.0052083
        k(  244) = (   0.1666667   0.4166667   0.3750000), wk =   0.0052083
        k(  245) = (   0.1666667   0.4166667  -0.5000000), wk =   0.0026042
        k(  246) = (   0.2083333   0.2083333   0.0000000), wk =   0.0026042
        k(  247) = (   0.2083333   0.2083333   0.1250000), wk =   0.0052083
        k(  248) = (   0.2083333   0.2083333   0.2500000), wk =   0.0052083
        k(  249) = (   0.2083333   0.2083333   0.3750000), wk =   0.0052083
        k(  250) = (   0.2083333   0.2083333  -0.5000000), wk =   0.0026042
        k(  251) = (   0.2083333   0.2500000   0.0000000), wk =   0.0052083
        k(  252) = (   0.2083333   0.2500000   0.1250000), wk =   0.0104167
        k(  253) = (   0.2083333   0.2500000   0.2500000), wk =   0.0104167
        k(  254) = (   0.2083333   0.2500000   0.3750000), wk =   0.0104167
        k(  255) = (   0.2083333   0.2500000  -0.5000000), wk =   0.0052083
        k(  256) = (   0.2083333   0.2916667   0.0000000), wk =   0.0052083
        k(  257) = (   0.2083333   0.2916667   0.1250000), wk =   0.0104167
        k(  258) = (   0.2083333   0.2916667   0.2500000), wk =   0.0104167
        k(  259) = (   0.2083333   0.2916667   0.3750000), wk =   0.0104167
        k(  260) = (   0.2083333   0.2916667  -0.5000000), wk =   0.0052083
        k(  261) = (   0.2083333   0.3333333   0.0000000), wk =   0.0052083
        k(  262) = (   0.2083333   0.3333333   0.1250000), wk =   0.0104167
        k(  263) = (   0.2083333   0.3333333   0.2500000), wk =   0.0104167
        k(  264) = (   0.2083333   0.3333333   0.3750000), wk =   0.0104167
        k(  265) = (   0.2083333   0.3333333  -0.5000000), wk =   0.0052083
        k(  266) = (   0.2083333   0.3750000   0.0000000), wk =   0.0052083
        k(  267) = (   0.2083333   0.3750000   0.1250000), wk =   0.0104167
        k(  268) = (   0.2083333   0.3750000   0.2500000), wk =   0.0104167
        k(  269) = (   0.2083333   0.3750000   0.3750000), wk =   0.0104167
        k(  270) = (   0.2083333   0.3750000  -0.5000000), wk =   0.0052083
        k(  271) = (   0.2500000   0.2500000   0.0000000), wk =   0.0026042
        k(  272) = (   0.2500000   0.2500000   0.1250000), wk =   0.0052083
        k(  273) = (   0.2500000   0.2500000   0.2500000), wk =   0.0052083
        k(  274) = (   0.2500000   0.2500000   0.3750000), wk =   0.0052083
        k(  275) = (   0.2500000   0.2500000  -0.5000000), wk =   0.0026042
        k(  276) = (   0.2500000   0.2916667   0.0000000), wk =   0.0052083
        k(  277) = (   0.2500000   0.2916667   0.1250000), wk =   0.0104167
        k(  278) = (   0.2500000   0.2916667   0.2500000), wk =   0.0104167
        k(  279) = (   0.2500000   0.2916667   0.3750000), wk =   0.0104167
        k(  280) = (   0.2500000   0.2916667  -0.5000000), wk =   0.0052083
        k(  281) = (   0.2500000   0.3333333   0.0000000), wk =   0.0052083
        k(  282) = (   0.2500000   0.3333333   0.1250000), wk =   0.0104167
        k(  283) = (   0.2500000   0.3333333   0.2500000), wk =   0.0104167
        k(  284) = (   0.2500000   0.3333333   0.3750000), wk =   0.0104167
        k(  285) = (   0.2500000   0.3333333  -0.5000000), wk =   0.0052083
        k(  286) = (   0.2500000   0.3750000   0.0000000), wk =   0.0026042
        k(  287) = (   0.2500000   0.3750000   0.1250000), wk =   0.0052083
        k(  288) = (   0.2500000   0.3750000   0.2500000), wk =   0.0052083
        k(  289) = (   0.2500000   0.3750000   0.3750000), wk =   0.0052083
        k(  290) = (   0.2500000   0.3750000  -0.5000000), wk =   0.0026042
        k(  291) = (   0.2916667   0.2916667   0.0000000), wk =   0.0026042
        k(  292) = (   0.2916667   0.2916667   0.1250000), wk =   0.0052083
        k(  293) = (   0.2916667   0.2916667   0.2500000), wk =   0.0052083
        k(  294) = (   0.2916667   0.2916667   0.3750000), wk =   0.0052083
        k(  295) = (   0.2916667   0.2916667  -0.5000000), wk =   0.0026042
        k(  296) = (   0.2916667   0.3333333   0.0000000), wk =   0.0052083
        k(  297) = (   0.2916667   0.3333333   0.1250000), wk =   0.0104167
        k(  298) = (   0.2916667   0.3333333   0.2500000), wk =   0.0104167
        k(  299) = (   0.2916667   0.3333333   0.3750000), wk =   0.0104167
        k(  300) = (   0.2916667   0.3333333  -0.5000000), wk =   0.0052083
        k(  301) = (   0.3333333   0.3333333   0.0000000), wk =   0.0008681
        k(  302) = (   0.3333333   0.3333333   0.1250000), wk =   0.0017361
        k(  303) = (   0.3333333   0.3333333   0.2500000), wk =   0.0017361
        k(  304) = (   0.3333333   0.3333333   0.3750000), wk =   0.0017361
        k(  305) = (   0.3333333   0.3333333  -0.5000000), wk =   0.0008681

     Dense  grid:     8029 G-vectors     FFT dimensions: (  20,  20,  50)

     Dynamical RAM for                 wfc:       0.04 MB

     Dynamical RAM for     wfc (w. buffer):       0.04 MB

     Dynamical RAM for           str. fact:       0.01 MB

     Dynamical RAM for           local pot:       0.00 MB

     Dynamical RAM for          nlocal pot:       0.00 MB

     Dynamical RAM for                qrad:       0.02 MB

     Dynamical RAM for          rho,v,vnew:       0.03 MB

     Dynamical RAM for           G-vectors:       0.02 MB

     Dynamical RAM for          h,s,v(r/c):       0.90 MB

     Dynamical RAM for          <psi|beta>:       0.00 MB

     Dynamical RAM for                 psi:       0.07 MB

     Dynamical RAM for                hpsi:       0.07 MB

     Dynamical RAM for      wfcinit/wfcrot:       0.19 MB

     Estimated static dynamical RAM per process >       0.16 MB

     Estimated max dynamical RAM per process >       1.21 MB

     Estimated total dynamical RAM >      33.96 MB

     The potential is recalculated from file :
     run_output/hBN.save/charge-density

     Starting wfcs are   16 randomized atomic wfcs +   54 random wfcs

     Band Structure Calculation
     Davidson diagonalization with overlap

     Computing kpt #:     1  of   305
     total cpu time spent up to now is        0.6 secs

     Computing kpt #:     2  of   305
     total cpu time spent up to now is        0.8 secs

     Computing kpt #:     3  of   305
     total cpu time spent up to now is        1.0 secs

     Computing kpt #:     4  of   305
     total cpu time spent up to now is        1.2 secs

     Computing kpt #:     5  of   305
     total cpu time spent up to now is        1.4 secs

     Computing kpt #:     6  of   305
     total cpu time spent up to now is        1.6 secs

     Computing kpt #:     7  of   305
     total cpu time spent up to now is        1.8 secs

     Computing kpt #:     8  of   305
     total cpu time spent up to now is        2.0 secs

     Computing kpt #:     9  of   305
     total cpu time spent up to now is        2.2 secs

     Computing kpt #:    10  of   305
     total cpu time spent up to now is        2.5 secs

     Computing kpt #:    11  of   305
     total cpu time spent up to now is        2.7 secs

     Computing kpt #:    12  of   305
     total cpu time spent up to now is        2.9 secs

     Computing kpt #:    13  of   305
     total cpu time spent up to now is        3.1 secs

     Computing kpt #:    14  of   305
     total cpu time spent up to now is        3.3 secs

     Computing kpt #:    15  of   305
     total cpu time spent up to now is        3.5 secs

     Computing kpt #:    16  of   305
     total cpu time spent up to now is        3.7 secs

     Computing kpt #:    17  of   305
     total cpu time spent up to now is        3.9 secs

     Computing kpt #:    18  of   305
     total cpu time spent up to now is        4.1 secs

     Computing kpt #:    19  of   305
     total cpu time spent up to now is        4.4 secs

     Computing kpt #:    20  of   305
     total cpu time spent up to now is        4.6 secs

     Computing kpt #:    21  of   305
     total cpu time spent up to now is        4.8 secs

     Computing kpt #:    22  of   305
     total cpu time spent up to now is        5.0 secs

     Computing kpt #:    23  of   305
     total cpu time spent up to now is        5.2 secs

     Computing kpt #:    24  of   305
     total cpu time spent up to now is        5.4 secs

     Computing kpt #:    25  of   305
     total cpu time spent up to now is        5.7 secs

     Computing kpt #:    26  of   305
     total cpu time spent up to now is        5.9 secs

     Computing kpt #:    27  of   305
     total cpu time spent up to now is        6.1 secs

     Computing kpt #:    28  of   305
     total cpu time spent up to now is        6.3 secs

     Computing kpt #:    29  of   305
     total cpu time spent up to now is        6.5 secs

     Computing kpt #:    30  of   305
     total cpu time spent up to now is        6.7 secs

     Computing kpt #:    31  of   305
     total cpu time spent up to now is        7.0 secs

     Computing kpt #:    32  of   305
     total cpu time spent up to now is        7.2 secs

     Computing kpt #:    33  of   305
     total cpu time spent up to now is        7.4 secs

     Computing kpt #:    34  of   305
     total cpu time spent up to now is        7.6 secs

     Computing kpt #:    35  of   305
     total cpu time spent up to now is        7.8 secs

     Computing kpt #:    36  of   305
     total cpu time spent up to now is        8.1 secs

     Computing kpt #:    37  of   305
     total cpu time spent up to now is        8.3 secs

     Computing kpt #:    38  of   305
     total cpu time spent up to now is        8.5 secs

     Computing kpt #:    39  of   305
     total cpu time spent up to now is        8.7 secs

     Computing kpt #:    40  of   305
     total cpu time spent up to now is        9.0 secs

     Computing kpt #:    41  of   305
     total cpu time spent up to now is        9.2 secs

     Computing kpt #:    42  of   305
     total cpu time spent up to now is        9.4 secs

     Computing kpt #:    43  of   305
     total cpu time spent up to now is        9.6 secs

     Computing kpt #:    44  of   305
     total cpu time spent up to now is        9.8 secs

     Computing kpt #:    45  of   305
     total cpu time spent up to now is       10.0 secs

     Computing kpt #:    46  of   305
     total cpu time spent up to now is       10.2 secs

     Computing kpt #:    47  of   305
     total cpu time spent up to now is       10.4 secs

     Computing kpt #:    48  of   305
     total cpu time spent up to now is       10.6 secs

     Computing kpt #:    49  of   305
     total cpu time spent up to now is       10.9 secs

     Computing kpt #:    50  of   305
     total cpu time spent up to now is       11.1 secs

     Computing kpt #:    51  of   305
     total cpu time spent up to now is       11.3 secs

     Computing kpt #:    52  of   305
     total cpu time spent up to now is       11.5 secs

     Computing kpt #:    53  of   305
     total cpu time spent up to now is       11.7 secs

     Computing kpt #:    54  of   305
     total cpu time spent up to now is       11.9 secs

     Computing kpt #:    55  of   305
     total cpu time spent up to now is       12.1 secs

     Computing kpt #:    56  of   305
     total cpu time spent up to now is       12.4 secs

     Computing kpt #:    57  of   305
     total cpu time spent up to now is       12.6 secs

     Computing kpt #:    58  of   305
     total cpu time spent up to now is       12.8 secs

     Computing kpt #:    59  of   305
     total cpu time spent up to now is       13.0 secs

     Computing kpt #:    60  of   305
     total cpu time spent up to now is       13.2 secs

     Computing kpt #:    61  of   305
     total cpu time spent up to now is       13.4 secs

     Computing kpt #:    62  of   305
     total cpu time spent up to now is       13.6 secs

     Computing kpt #:    63  of   305
     total cpu time spent up to now is       13.8 secs

     Computing kpt #:    64  of   305
     total cpu time spent up to now is       14.0 secs

     Computing kpt #:    65  of   305
     total cpu time spent up to now is       14.2 secs

     Computing kpt #:    66  of   305
     total cpu time spent up to now is       14.4 secs

     Computing kpt #:    67  of   305
     total cpu time spent up to now is       14.6 secs

     Computing kpt #:    68  of   305
     total cpu time spent up to now is       14.9 secs

     Computing kpt #:    69  of   305
     total cpu time spent up to now is       15.1 secs

     Computing kpt #:    70  of   305
     total cpu time spent up to now is       15.4 secs

     Computing kpt #:    71  of   305
     total cpu time spent up to now is       15.6 secs

     Computing kpt #:    72  of   305
     total cpu time spent up to now is       15.8 secs

     Computing kpt #:    73  of   305
     total cpu time spent up to now is       16.0 secs

     Computing kpt #:    74  of   305
     total cpu time spent up to now is       16.2 secs

     Computing kpt #:    75  of   305
     total cpu time spent up to now is       16.4 secs

     Computing kpt #:    76  of   305
     total cpu time spent up to now is       16.6 secs

     Computing kpt #:    77  of   305
     total cpu time spent up to now is       16.9 secs

     Computing kpt #:    78  of   305
     total cpu time spent up to now is       17.1 secs

     Computing kpt #:    79  of   305
     total cpu time spent up to now is       17.3 secs

     Computing kpt #:    80  of   305
     total cpu time spent up to now is       17.5 secs

     Computing kpt #:    81  of   305
     total cpu time spent up to now is       17.7 secs

     Computing kpt #:    82  of   305
     total cpu time spent up to now is       17.9 secs

     Computing kpt #:    83  of   305
     total cpu time spent up to now is       18.2 secs

     Computing kpt #:    84  of   305
     total cpu time spent up to now is       18.4 secs

     Computing kpt #:    85  of   305
     total cpu time spent up to now is       18.6 secs

     Computing kpt #:    86  of   305
     total cpu time spent up to now is       18.8 secs

     Computing kpt #:    87  of   305
     total cpu time spent up to now is       19.1 secs

     Computing kpt #:    88  of   305
     total cpu time spent up to now is       19.3 secs

     Computing kpt #:    89  of   305
     total cpu time spent up to now is       19.5 secs

     Computing kpt #:    90  of   305
     total cpu time spent up to now is       19.7 secs

     Computing kpt #:    91  of   305
     total cpu time spent up to now is       19.9 secs

     Computing kpt #:    92  of   305
     total cpu time spent up to now is       20.1 secs

     Computing kpt #:    93  of   305
     total cpu time spent up to now is       20.4 secs

     Computing kpt #:    94  of   305
     total cpu time spent up to now is       20.6 secs

     Computing kpt #:    95  of   305
     total cpu time spent up to now is       20.8 secs

     Computing kpt #:    96  of   305
     total cpu time spent up to now is       21.0 secs

     Computing kpt #:    97  of   305
     total cpu time spent up to now is       21.3 secs

     Computing kpt #:    98  of   305
     total cpu time spent up to now is       21.5 secs

     Computing kpt #:    99  of   305
     total cpu time spent up to now is       21.7 secs

     Computing kpt #:   100  of   305
     total cpu time spent up to now is       21.9 secs

     Computing kpt #:   101  of   305
     total cpu time spent up to now is       22.1 secs

     Computing kpt #:   102  of   305
     total cpu time spent up to now is       22.3 secs

     Computing kpt #:   103  of   305
     total cpu time spent up to now is       22.5 secs

     Computing kpt #:   104  of   305
     total cpu time spent up to now is       22.7 secs

     Computing kpt #:   105  of   305
     total cpu time spent up to now is       22.9 secs

     Computing kpt #:   106  of   305
     total cpu time spent up to now is       23.1 secs

     Computing kpt #:   107  of   305
     total cpu time spent up to now is       23.3 secs

     Computing kpt #:   108  of   305
     total cpu time spent up to now is       23.5 secs

     Computing kpt #:   109  of   305
     total cpu time spent up to now is       23.7 secs

     Computing kpt #:   110  of   305
     total cpu time spent up to now is       23.9 secs

     Computing kpt #:   111  of   305
     total cpu time spent up to now is       24.1 secs

     Computing kpt #:   112  of   305
     total cpu time spent up to now is       24.3 secs

     Computing kpt #:   113  of   305
     total cpu time spent up to now is       24.6 secs

     Computing kpt #:   114  of   305
     total cpu time spent up to now is       24.8 secs

     Computing kpt #:   115  of   305
     total cpu time spent up to now is       25.0 secs

     Computing kpt #:   116  of   305
     total cpu time spent up to now is       25.2 secs

     Computing kpt #:   117  of   305
     total cpu time spent up to now is       25.4 secs

     Computing kpt #:   118  of   305
     total cpu time spent up to now is       25.6 secs

     Computing kpt #:   119  of   305
     total cpu time spent up to now is       25.8 secs

     Computing kpt #:   120  of   305
     total cpu time spent up to now is       26.0 secs

     Computing kpt #:   121  of   305
     total cpu time spent up to now is       26.2 secs

     Computing kpt #:   122  of   305
     total cpu time spent up to now is       26.4 secs

     Computing kpt #:   123  of   305
     total cpu time spent up to now is       26.6 secs

     Computing kpt #:   124  of   305
     total cpu time spent up to now is       26.8 secs

     Computing kpt #:   125  of   305
     total cpu time spent up to now is       27.0 secs

     Computing kpt #:   126  of   305
     total cpu time spent up to now is       27.2 secs

     Computing kpt #:   127  of   305
     total cpu time spent up to now is       27.5 secs

     Computing kpt #:   128  of   305
     total cpu time spent up to now is       27.7 secs

     Computing kpt #:   129  of   305
     total cpu time spent up to now is       27.9 secs

     Computing kpt #:   130  of   305
     total cpu time spent up to now is       28.1 secs

     Computing kpt #:   131  of   305
     total cpu time spent up to now is       28.4 secs

     Computing kpt #:   132  of   305
     total cpu time spent up to now is       28.6 secs

     Computing kpt #:   133  of   305
     total cpu time spent up to now is       28.8 secs

     Computing kpt #:   134  of   305
     total cpu time spent up to now is       29.0 secs

     Computing kpt #:   135  of   305
     total cpu time spent up to now is       29.3 secs

     Computing kpt #:   136  of   305
     total cpu time spent up to now is       29.5 secs

     Computing kpt #:   137  of   305
     total cpu time spent up to now is       29.7 secs

     Computing kpt #:   138  of   305
     total cpu time spent up to now is       29.9 secs

     Computing kpt #:   139  of   305
     total cpu time spent up to now is       30.1 secs

     Computing kpt #:   140  of   305
     total cpu time spent up to now is       30.3 secs

     Computing kpt #:   141  of   305
     total cpu time spent up to now is       30.5 secs

     Computing kpt #:   142  of   305
     total cpu time spent up to now is       30.8 secs

     Computing kpt #:   143  of   305
     total cpu time spent up to now is       31.0 secs

     Computing kpt #:   144  of   305
     total cpu time spent up to now is       31.3 secs

     Computing kpt #:   145  of   305
     total cpu time spent up to now is       31.5 secs

     Computing kpt #:   146  of   305
     total cpu time spent up to now is       31.7 secs

     Computing kpt #:   147  of   305
     total cpu time spent up to now is       31.9 secs

     Computing kpt #:   148  of   305
     total cpu time spent up to now is       32.1 secs

     Computing kpt #:   149  of   305
     total cpu time spent up to now is       32.3 secs

     Computing kpt #:   150  of   305
     total cpu time spent up to now is       32.6 secs

     Computing kpt #:   151  of   305
     total cpu time spent up to now is       34.4 secs

     Computing kpt #:   152  of   305
     total cpu time spent up to now is       34.6 secs

     Computing kpt #:   153  of   305
     total cpu time spent up to now is       34.8 secs

     Computing kpt #:   154  of   305
     total cpu time spent up to now is       35.0 secs

     Computing kpt #:   155  of   305
     total cpu time spent up to now is       35.2 secs

     Computing kpt #:   156  of   305
     total cpu time spent up to now is       35.4 secs

     Computing kpt #:   157  of   305
     total cpu time spent up to now is       35.6 secs

     Computing kpt #:   158  of   305
     total cpu time spent up to now is       35.8 secs

     Computing kpt #:   159  of   305
     total cpu time spent up to now is       36.1 secs

     Computing kpt #:   160  of   305
     total cpu time spent up to now is       36.3 secs

     Computing kpt #:   161  of   305
     total cpu time spent up to now is       36.5 secs

     Computing kpt #:   162  of   305
     total cpu time spent up to now is       36.7 secs

     Computing kpt #:   163  of   305
     total cpu time spent up to now is       36.9 secs

     Computing kpt #:   164  of   305
     total cpu time spent up to now is       37.1 secs

     Computing kpt #:   165  of   305
     total cpu time spent up to now is       37.4 secs

     Computing kpt #:   166  of   305
     total cpu time spent up to now is       37.6 secs

     Computing kpt #:   167  of   305
     total cpu time spent up to now is       37.8 secs

     Computing kpt #:   168  of   305
     total cpu time spent up to now is       38.0 secs

     Computing kpt #:   169  of   305
     total cpu time spent up to now is       38.2 secs

     Computing kpt #:   170  of   305
     total cpu time spent up to now is       38.4 secs

     Computing kpt #:   171  of   305
     total cpu time spent up to now is       38.6 secs

     Computing kpt #:   172  of   305
     total cpu time spent up to now is       38.9 secs

     Computing kpt #:   173  of   305
     total cpu time spent up to now is       39.1 secs

     Computing kpt #:   174  of   305
     total cpu time spent up to now is       39.4 secs

     Computing kpt #:   175  of   305
     total cpu time spent up to now is       39.6 secs

     Computing kpt #:   176  of   305
     total cpu time spent up to now is       39.8 secs

     Computing kpt #:   177  of   305
     total cpu time spent up to now is       40.1 secs

     Computing kpt #:   178  of   305
     total cpu time spent up to now is       40.3 secs

     Computing kpt #:   179  of   305
     total cpu time spent up to now is       40.5 secs

     Computing kpt #:   180  of   305
     total cpu time spent up to now is       40.7 secs

     Computing kpt #:   181  of   305
     total cpu time spent up to now is       40.9 secs

     Computing kpt #:   182  of   305
     total cpu time spent up to now is       41.2 secs

     Computing kpt #:   183  of   305
     total cpu time spent up to now is       41.4 secs

     Computing kpt #:   184  of   305
     total cpu time spent up to now is       41.6 secs

     Computing kpt #:   185  of   305
     total cpu time spent up to now is       41.9 secs

     Computing kpt #:   186  of   305
     total cpu time spent up to now is       42.1 secs

     Computing kpt #:   187  of   305
     total cpu time spent up to now is       42.3 secs

     Computing kpt #:   188  of   305
     total cpu time spent up to now is       42.5 secs

     Computing kpt #:   189  of   305
     total cpu time spent up to now is       42.8 secs

     Computing kpt #:   190  of   305
     total cpu time spent up to now is       43.0 secs

     Computing kpt #:   191  of   305
     total cpu time spent up to now is       43.2 secs

     Computing kpt #:   192  of   305
     total cpu time spent up to now is       43.4 secs

     Computing kpt #:   193  of   305
     total cpu time spent up to now is       43.7 secs

     Computing kpt #:   194  of   305
     total cpu time spent up to now is       43.9 secs

     Computing kpt #:   195  of   305
     total cpu time spent up to now is       44.0 secs

     Computing kpt #:   196  of   305
     total cpu time spent up to now is       44.3 secs

     Computing kpt #:   197  of   305
     total cpu time spent up to now is       44.5 secs

     Computing kpt #:   198  of   305
     total cpu time spent up to now is       44.7 secs

     Computing kpt #:   199  of   305
     total cpu time spent up to now is       44.9 secs

     Computing kpt #:   200  of   305
     total cpu time spent up to now is       45.1 secs

     Computing kpt #:   201  of   305
     total cpu time spent up to now is       45.3 secs

     Computing kpt #:   202  of   305
     total cpu time spent up to now is       45.6 secs

     Computing kpt #:   203  of   305
     total cpu time spent up to now is       45.8 secs

     Computing kpt #:   204  of   305
     total cpu time spent up to now is       46.0 secs

     Computing kpt #:   205  of   305
     total cpu time spent up to now is       46.2 secs

     Computing kpt #:   206  of   305
     total cpu time spent up to now is       46.4 secs

     Computing kpt #:   207  of   305
     total cpu time spent up to now is       46.6 secs

     Computing kpt #:   208  of   305
     total cpu time spent up to now is       46.9 secs

     Computing kpt #:   209  of   305
     total cpu time spent up to now is       47.1 secs

     Computing kpt #:   210  of   305
     total cpu time spent up to now is       47.3 secs

     Computing kpt #:   211  of   305
     total cpu time spent up to now is       47.5 secs

     Computing kpt #:   212  of   305
     total cpu time spent up to now is       47.7 secs

     Computing kpt #:   213  of   305
     total cpu time spent up to now is       47.9 secs

     Computing kpt #:   214  of   305
     total cpu time spent up to now is       48.1 secs

     Computing kpt #:   215  of   305
     total cpu time spent up to now is       48.3 secs

     Computing kpt #:   216  of   305
     total cpu time spent up to now is       48.5 secs

     Computing kpt #:   217  of   305
     total cpu time spent up to now is       48.7 secs

     Computing kpt #:   218  of   305
     total cpu time spent up to now is       49.0 secs

     Computing kpt #:   219  of   305
     total cpu time spent up to now is       49.2 secs

     Computing kpt #:   220  of   305
     total cpu time spent up to now is       49.4 secs

     Computing kpt #:   221  of   305
     total cpu time spent up to now is       49.7 secs

     Computing kpt #:   222  of   305
     total cpu time spent up to now is       49.9 secs

     Computing kpt #:   223  of   305
     total cpu time spent up to now is       50.2 secs

     Computing kpt #:   224  of   305
     total cpu time spent up to now is       50.4 secs

     Computing kpt #:   225  of   305
     total cpu time spent up to now is       50.6 secs

     Computing kpt #:   226  of   305
     total cpu time spent up to now is       50.8 secs

     Computing kpt #:   227  of   305
     total cpu time spent up to now is       51.0 secs

     Computing kpt #:   228  of   305
     total cpu time spent up to now is       51.2 secs

     Computing kpt #:   229  of   305
     total cpu time spent up to now is       51.5 secs

     Computing kpt #:   230  of   305
     total cpu time spent up to now is       51.7 secs

     Computing kpt #:   231  of   305
     total cpu time spent up to now is       51.9 secs

     Computing kpt #:   232  of   305
     total cpu time spent up to now is       52.1 secs

     Computing kpt #:   233  of   305
     total cpu time spent up to now is       52.3 secs

     Computing kpt #:   234  of   305
     total cpu time spent up to now is       52.5 secs

     Computing kpt #:   235  of   305
[...]
     0.0000   0.0000   0.0000   0.0000   0.0000   0.0000   0.0000   0.0000
     0.0000   0.0000   0.0000   0.0000   0.0000   0.0000   0.0000   0.0000
     0.0000   0.0000   0.0000   0.0000   0.0000   0.0000   0.0000   0.0000
     0.0000   0.0000   0.0000   0.0000   0.0000   0.0000   0.0000   0.0000
     0.0000   0.0000   0.0000   0.0000   0.0000   0.0000   0.0000   0.0000
     0.0000   0.0000   0.0000   0.0000   0.0000   0.0000   0.0000   0.0000
     0.0000   0.0000   0.0000   0.0000   0.0000   0.0000   0.0000   0.0000
     0.0000   0.0000   0.0000   0.0000   0.0000   0.0000

          k = 0.2917 0.5052 0.1452 (   999 PWs)   bands (ev):

    -9.5568  -9.5247  -3.1265  -3.0660  -1.6943  -1.6735   4.5843   4.9769
     9.6553   9.9082  16.3476  17.2352  18.5778  19.0830  21.4220  21.5405
    22.9780  23.6472  24.7675  25.3716  27.2776  27.4058  30.5095  33.0336
    33.2115  33.9261  38.4165  38.9659  40.2911  41.0208  43.4200  44.1796
    45.7548  46.3826  47.6651  49.8452  51.0480  51.5516  52.1638  53.0135
    53.9479  54.7475  55.5647  56.3032  56.4382  58.2862  60.5408  62.1707
    62.2041  63.4223  65.3048  65.7603  66.4145  66.6263  66.8494  68.4614
    70.6225  71.0749  72.2071  72.9175  73.1021  74.6426  75.7005  76.3651
    77.0565  77.4805  78.6404  79.4871  79.7282  80.1104

     occupation numbers 
     1.0000   1.0000   1.0000   1.0000   1.0000   1.0000   1.0000   1.0000
     0.0000   0.0000   0.0000   0.0000   0.0000   0.0000   0.0000   0.0000
     0.0000   0.0000   0.0000   0.0000   0.0000   0.0000   0.0000   0.0000
     0.0000   0.0000   0.0000   0.0000   0.0000   0.0000   0.0000   0.0000
     0.0000   0.0000   0.0000   0.0000   0.0000   0.0000   0.0000   0.0000
     0.0000   0.0000   0.0000   0.0000   0.0000   0.0000   0.0000   0.0000
     0.0000   0.0000   0.0000   0.0000   0.0000   0.0000   0.0000   0.0000
     0.0000   0.0000   0.0000   0.0000   0.0000   0.0000   0.0000   0.0000
     0.0000   0.0000   0.0000   0.0000   0.0000   0.0000

          k = 0.2917 0.5052-0.1936 (   996 PWs)   bands (ev):

    -9.5396  -9.5395  -3.0934  -3.0934  -1.6832  -1.6832   4.7938   4.7938
     9.7482   9.7482  16.8034  16.8034  18.9162  18.9162  21.4646  21.4647
    23.1921  23.1921  25.0562  25.0563  27.3840  27.3841  31.9021  31.9022
    33.3065  33.3066  38.9121  38.9122  40.4588  40.4588  44.4294  44.4294
    45.4829  45.4829  49.1796  49.1796  51.0891  51.0891  53.3496  53.3496
    53.6459  53.6459  55.4525  55.4525  57.0656  57.0656  61.5126  61.5126
    62.6620  62.6621  65.8190  65.8190  66.3834  66.3834  68.7969  68.7969
    70.2789  70.2789  72.7668  72.7668  73.5947  73.5947  76.3887  76.3887
    78.0648  78.0648  79.3081  79.3081  80.0564  80.0564

     occupation numbers 
     1.0000   1.0000   1.0000   1.0000   1.0000   1.0000   1.0000   1.0000
     0.0000   0.0000   0.0000   0.0000   0.0000   0.0000   0.0000   0.0000
     0.0000   0.0000   0.0000   0.0000   0.0000   0.0000   0.0000   0.0000
     0.0000   0.0000   0.0000   0.0000   0.0000   0.0000   0.0000   0.0000
     0.0000   0.0000   0.0000   0.0000   0.0000   0.0000   0.0000   0.0000
     0.0000   0.0000   0.0000   0.0000   0.0000   0.0000   0.0000   0.0000
     0.0000   0.0000   0.0000   0.0000   0.0000   0.0000   0.0000   0.0000
     0.0000   0.0000   0.0000   0.0000   0.0000   0.0000   0.0000   0.0000
     0.0000   0.0000   0.0000   0.0000   0.0000   0.0000

          k = 0.2917 0.5533 0.0000 (  1001 PWs)   bands (ev):

    -9.4358  -9.3984  -3.2275  -3.0285  -1.9348  -1.8897   4.6471   5.1492
     9.6470  10.0329  15.3752  17.7168  18.5041  18.8170  21.9396  21.9863
    23.0161  24.1181  25.1886  25.3527  26.5268  27.4456  28.0321  33.2782
    33.3901  37.2482  38.1883  38.9872  40.5938  41.0092  41.7942  42.9272
    44.6517  47.4278  47.5022  49.0601  50.0998  51.6064  53.1556  54.1826
    55.0615  55.3847  55.4082  57.2987  60.1192  60.2321  61.3695  61.7198
    62.2494  62.6020  63.1763  63.7176  65.3595  66.0740  66.9523  67.4083
    68.5430  68.6826  71.9937  73.5552  73.7868  74.0619  74.7730  75.3055
    75.9930  77.7977  78.7441  79.5574  80.2908  81.0477

     occupation numbers 
     1.0000   1.0000   1.0000   1.0000   1.0000   1.0000   1.0000   1.0000
     0.0000   0.0000   0.0000   0.0000   0.0000   0.0000   0.0000   0.0000
     0.0000   0.0000   0.0000   0.0000   0.0000   0.0000   0.0000   0.0000
     0.0000   0.0000   0.0000   0.0000   0.0000   0.0000   0.0000   0.0000
     0.0000   0.0000   0.0000   0.0000   0.0000   0.0000   0.0000   0.0000
     0.0000   0.0000   0.0000   0.0000   0.0000   0.0000   0.0000   0.0000
     0.0000   0.0000   0.0000   0.0000   0.0000   0.0000   0.0000   0.0000
     0.0000   0.0000   0.0000   0.0000   0.0000   0.0000   0.0000   0.0000
     0.0000   0.0000   0.0000   0.0000   0.0000   0.0000

          k = 0.2917 0.5533 0.0484 (   996 PWs)   bands (ev):

    -9.4336  -9.3991  -3.2219  -3.0317  -1.9293  -1.8926   4.7001   5.1546
     9.6129   9.9871  15.4611  17.8272  18.5067  18.7292  21.9623  21.9964
    23.0844  24.1108  25.0422  25.1845  26.6326  27.3720  28.2880  33.2964
    33.3950  37.2936  37.6180  38.3488  40.9534  41.8048  42.0234  43.0530
    44.8431  47.3389  47.7061  48.8282  49.7410  52.1458  53.0787  53.9698
    54.5365  55.0388  55.4965  57.5455  59.4928  60.0703  61.2943  61.6519
    62.4733  62.9306  63.2287  63.9789  64.6229  65.3655  66.6345  68.1697
    69.4695  70.4269  72.0370  73.5711  73.6512  73.7717  75.0011  75.6641
    75.9375  77.7878  78.7901  79.4885  79.9097  80.6740

     occupation numbers 
     1.0000   1.0000   1.0000   1.0000   1.0000   1.0000   1.0000   1.0000
     0.0000   0.0000   0.0000   0.0000   0.0000   0.0000   0.0000   0.0000
     0.0000   0.0000   0.0000   0.0000   0.0000   0.0000   0.0000   0.0000
     0.0000   0.0000   0.0000   0.0000   0.0000   0.0000   0.0000   0.0000
     0.0000   0.0000   0.0000   0.0000   0.0000   0.0000   0.0000   0.0000
     0.0000   0.0000   0.0000   0.0000   0.0000   0.0000   0.0000   0.0000
     0.0000   0.0000   0.0000   0.0000   0.0000   0.0000   0.0000   0.0000
     0.0000   0.0000   0.0000   0.0000   0.0000   0.0000   0.0000   0.0000
     0.0000   0.0000   0.0000   0.0000   0.0000   0.0000

          k = 0.2917 0.5533 0.0968 (   998 PWs)   bands (ev):

    -9.4300  -9.4052  -3.2023  -3.0631  -1.9314  -1.9047   4.7857   5.1616
     9.5423   9.8340  15.7149  17.8329  18.4011  18.8867  21.9924  22.0277
    23.1878  24.0242  24.5875  24.9515  26.7970  27.2404  28.9971  33.3106
    33.3685  35.3883  38.0837  38.6050  40.7674  41.9772  42.7488  44.1452
    45.5600  46.9170  48.0981  48.4993  49.3356  52.4531  52.6989  53.2422
    54.1531  55.1156  55.8874  57.6116  57.8998  58.6903  60.5199  62.0933
    62.5259  63.1671  64.0231  64.4734  64.8038  65.2656  66.6758  68.0738
    71.8706  72.4104  72.7708  72.9446  73.7937  73.8624  75.3329  75.7848
    76.5379  77.6751  78.5636  78.9559  79.7924  80.8299

     occupation numbers 
     1.0000   1.0000   1.0000   1.0000   1.0000   1.0000   1.0000   1.0000
     0.0000   0.0000   0.0000   0.0000   0.0000   0.0000   0.0000   0.0000
     0.0000   0.0000   0.0000   0.0000   0.0000   0.0000   0.0000   0.0000
     0.0000   0.0000   0.0000   0.0000   0.0000   0.0000   0.0000   0.0000
     0.0000   0.0000   0.0000   0.0000   0.0000   0.0000   0.0000   0.0000
     0.0000   0.0000   0.0000   0.0000   0.0000   0.0000   0.0000   0.0000
     0.0000   0.0000   0.0000   0.0000   0.0000   0.0000   0.0000   0.0000
     0.0000   0.0000   0.0000   0.0000   0.0000   0.0000   0.0000   0.0000
     0.0000   0.0000   0.0000   0.0000   0.0000   0.0000

          k = 0.2917 0.5533 0.1452 (  1000 PWs)   bands (ev):

    -9.4253  -9.4120  -3.1763  -3.0957  -1.9304  -1.9154   4.9092   5.1151
     9.4956   9.6573  16.1238  17.2774  18.7537  19.0712  22.0211  22.0738
    23.2436  23.6952  24.3973  24.6771  26.9342  27.1333  30.1370  33.1800
    33.3378  33.6109  38.7255  38.9212  40.6418  41.4640  43.7295  45.2237
    46.0394  46.7236  47.3179  48.7295  49.9864  51.7133  51.9212  53.8762
    54.3474  54.9225  55.3435  56.6741  57.0368  58.8316  59.5672  61.4572
    62.3460  62.5765  64.5297  64.7371  66.6367  66.8765  66.9302  68.1403
    71.0888  71.5155  73.7129  73.9361  74.8554  75.5415  76.1235  76.5328
    76.9383  77.5438  78.1550  78.9554  79.8269  80.3000

     occupation numbers 
     1.0000   1.0000   1.0000   1.0000   1.0000   1.0000   1.0000   1.0000
     0.0000   0.0000   0.0000   0.0000   0.0000   0.0000   0.0000   0.0000
     0.0000   0.0000   0.0000   0.0000   0.0000   0.0000   0.0000   0.0000
     0.0000   0.0000   0.0000   0.0000   0.0000   0.0000   0.0000   0.0000
     0.0000   0.0000   0.0000   0.0000   0.0000   0.0000   0.0000   0.0000
     0.0000   0.0000   0.0000   0.0000   0.0000   0.0000   0.0000   0.0000
     0.0000   0.0000   0.0000   0.0000   0.0000   0.0000   0.0000   0.0000
     0.0000   0.0000   0.0000   0.0000   0.0000   0.0000   0.0000   0.0000
     0.0000   0.0000   0.0000   0.0000   0.0000   0.0000

          k = 0.2917 0.5533-0.1936 (  1002 PWs)   bands (ev):

    -9.4189  -9.4188  -3.1355  -3.1355  -1.9289  -1.9288   5.0248   5.0249
     9.5319   9.5319  16.6612  16.6612  19.0437  19.0437  22.0650  22.0651
    23.3629  23.3630  24.4727  24.4728  27.0385  27.0385  31.6255  31.6255
    33.3725  33.3725  39.0451  39.0451  40.8913  40.8913  44.8755  44.8755
    46.2932  46.2932  47.8295  47.8295  51.3940  51.3940  52.4649  52.4649
    54.3432  54.3432  55.7294  55.7294  58.1574  58.1574  60.0381  60.0381
    62.4771  62.4771  64.7440  64.7440  67.1693  67.1693  68.4788  68.4788
    70.3570  70.3570  73.9036  73.9036  75.6033  75.6033  76.7760  76.7760
    78.0113  78.0113  78.9176  78.9176  80.2096  80.2096

     occupation numbers 
     1.0000   1.0000   1.0000   1.0000   1.0000   1.0000   1.0000   1.0000
     0.0000   0.0000   0.0000   0.0000   0.0000   0.0000   0.0000   0.0000
     0.0000   0.0000   0.0000   0.0000   0.0000   0.0000   0.0000   0.0000
     0.0000   0.0000   0.0000   0.0000   0.0000   0.0000   0.0000   0.0000
     0.0000   0.0000   0.0000   0.0000   0.0000   0.0000   0.0000   0.0000
     0.0000   0.0000   0.0000   0.0000   0.0000   0.0000   0.0000   0.0000
     0.0000   0.0000   0.0000   0.0000   0.0000   0.0000   0.0000   0.0000
     0.0000   0.0000   0.0000   0.0000   0.0000   0.0000   0.0000   0.0000
     0.0000   0.0000   0.0000   0.0000   0.0000   0.0000

          k = 0.3333 0.5774 0.0000 (  1005 PWs)   bands (ev):

    -9.3695  -9.3695  -3.2110  -2.9396  -2.1064  -2.1064   4.9799   4.9800
     9.7891   9.7891  15.1997  18.2625  18.2625  18.8222  21.8080  23.1002
    23.1002  23.1402  25.0786  25.0786  27.0026  27.0026  27.7236  33.3951
    33.4518  37.7279  37.7279  38.8832  40.3354  41.8125  41.8125  44.1901
    44.1902  46.0528  48.6220  48.6220  49.9709  51.9155  53.6518  53.6518
    55.0375  55.0375  56.1862  56.1862  60.8480  61.2046  61.2046  61.6662
    61.6662  62.9848  62.9848  63.0016  65.1732  66.6592  66.7757  67.1939
    67.1939  68.3559  73.6592  73.6593  74.0030  75.1038  75.1038  76.5515
    76.5515  77.3829  77.8326  77.8326  78.8299  81.7319

     occupation numbers 
     1.0000   1.0000   1.0000   1.0000   1.0000   1.0000   1.0000   1.0000
     0.0000   0.0000   0.0000   0.0000   0.0000   0.0000   0.0000   0.0000
     0.0000   0.0000   0.0000   0.0000   0.0000   0.0000   0.0000   0.0000
     0.0000   0.0000   0.0000   0.0000   0.0000   0.0000   0.0000   0.0000
     0.0000   0.0000   0.0000   0.0000   0.0000   0.0000   0.0000   0.0000
     0.0000   0.0000   0.0000   0.0000   0.0000   0.0000   0.0000   0.0000
     0.0000   0.0000   0.0000   0.0000   0.0000   0.0000   0.0000   0.0000
     0.0000   0.0000   0.0000   0.0000   0.0000   0.0000   0.0000   0.0000
     0.0000   0.0000   0.0000   0.0000   0.0000   0.0000

          k = 0.3333 0.5774 0.0484 (  1005 PWs)   bands (ev):

    -9.3693  -9.3693  -3.2029  -2.9477  -2.1079  -2.1078   4.9996   4.9997
     9.7405   9.7405  15.2899  18.3818  18.3818  18.5577  21.9662  23.0908
    23.0909  23.1234  24.9490  24.9490  26.9758  26.9758  27.9831  33.3988
    33.4474  37.2948  37.9222  37.9222  41.7606  41.7606  41.8532  44.2987
    44.2987  46.3754  48.5470  48.5471  49.2073  52.8186  53.5808  53.5809
    54.4788  54.4788  56.3288  56.3289  59.9922  60.7118  60.7118  62.4167
    62.4167  62.9901  63.3947  63.3948  63.6769  64.9482  67.2583  67.2583
    69.1497  70.2981  73.3469  73.3469  74.0820  75.3204  75.3205  76.6920
    76.6921  77.1077  77.8742  77.8742  78.9446  82.1555

     occupation numbers 
     1.0000   1.0000   1.0000   1.0000   1.0000   1.0000   1.0000   1.0000
     0.0000   0.0000   0.0000   0.0000   0.0000   0.0000   0.0000   0.0000
     0.0000   0.0000   0.0000   0.0000   0.0000   0.0000   0.0000   0.0000
     0.0000   0.0000   0.0000   0.0000   0.0000   0.0000   0.0000   0.0000
     0.0000   0.0000   0.0000   0.0000   0.0000   0.0000   0.0000   0.0000
     0.0000   0.0000   0.0000   0.0000   0.0000   0.0000   0.0000   0.0000
     0.0000   0.0000   0.0000   0.0000   0.0000   0.0000   0.0000   0.0000
     0.0000   0.0000   0.0000   0.0000   0.0000   0.0000   0.0000   0.0000
     0.0000   0.0000   0.0000   0.0000   0.0000   0.0000

          k = 0.3333 0.5774 0.0968 (   993 PWs)   bands (ev):

    -9.3654  -9.3653  -3.1455  -2.9742  -2.0993  -2.0993   5.0673   5.0674
     9.6334   9.6334  15.5568  17.9548  18.7075  18.7075  22.2981  23.0558
    23.0558  23.0746  24.6290  24.6290  26.9320  26.9320  28.7423  33.3840
    33.4786  35.2291  38.4106  38.4106  41.6082  41.6082  43.5733  44.6784
    44.6784  47.4815  48.0295  48.2420  48.2420  52.8499  52.8499  54.2304
    54.2304  54.4123  56.5347  56.5347  57.6492  59.7605  59.7605  62.6186
    62.9645  63.0263  63.5531  63.5531  64.6512  64.6512  67.4201  67.4201
    72.5778  72.5778  72.5808  72.9584  74.3299  75.5993  75.5993  76.4981
    77.2222  77.2222  77.9898  77.9898  79.2915  81.2914

     occupation numbers 
     1.0000   1.0000   1.0000   1.0000   1.0000   1.0000   1.0000   1.0000
     0.0000   0.0000   0.0000   0.0000   0.0000   0.0000   0.0000   0.0000
     0.0000   0.0000   0.0000   0.0000   0.0000   0.0000   0.0000   0.0000
     0.0000   0.0000   0.0000   0.0000   0.0000   0.0000   0.0000   0.0000
     0.0000   0.0000   0.0000   0.0000   0.0000   0.0000   0.0000   0.0000
     0.0000   0.0000   0.0000   0.0000   0.0000   0.0000   0.0000   0.0000
     0.0000   0.0000   0.0000   0.0000   0.0000   0.0000   0.0000   0.0000
     0.0000   0.0000   0.0000   0.0000   0.0000   0.0000   0.0000   0.0000
     0.0000   0.0000   0.0000   0.0000   0.0000   0.0000

          k = 0.3333 0.5774 0.1452 (  1002 PWs)   bands (ev):

    -9.3700  -9.3699  -3.1045  -3.0204  -2.1103  -2.1103   5.0893   5.0894
     9.5126   9.5126  15.9875  17.2381  19.0397  19.0397  22.5979  22.9607
    22.9986  22.9986  24.2881  24.2881  26.8825  26.8825  29.9251  33.1565
    33.4028  33.5213  38.9386  38.9386  41.3299  41.3299  44.8285  45.3891
    45.3891  46.9009  47.4978  47.4978  49.4553  52.0917  52.0918  54.3965
    54.3966  54.7064  56.3540  56.7752  56.7752  58.8468  58.8468  60.3838
    62.8947  62.9198  63.9423  63.9423  66.6631  66.6632  67.6334  67.6334
    71.4035  71.4035  74.6329  75.6605  75.6605  75.6610  75.8820  76.3052
    77.7840  77.7840  78.4279  78.4280  79.8690  80.3840

     occupation numbers 
     1.0000   1.0000   1.0000   1.0000   1.0000   1.0000   1.0000   1.0000
     0.0000   0.0000   0.0000   0.0000   0.0000   0.0000   0.0000   0.0000
     0.0000   0.0000   0.0000   0.0000   0.0000   0.0000   0.0000   0.0000
     0.0000   0.0000   0.0000   0.0000   0.0000   0.0000   0.0000   0.0000
     0.0000   0.0000   0.0000   0.0000   0.0000   0.0000   0.0000   0.0000
     0.0000   0.0000   0.0000   0.0000   0.0000   0.0000   0.0000   0.0000
     0.0000   0.0000   0.0000   0.0000   0.0000   0.0000   0.0000   0.0000
     0.0000   0.0000   0.0000   0.0000   0.0000   0.0000   0.0000   0.0000
     0.0000   0.0000   0.0000   0.0000   0.0000   0.0000

          k = 0.3333 0.5774-0.1936 (  1002 PWs)   bands (ev):

    -9.3694  -9.3693  -3.0646  -3.0646  -2.1126  -2.1126   5.1141   5.1141
     9.4643   9.4643  16.5603  16.5603  19.1860  19.1860  22.8112  22.8113
    22.9553  22.9553  24.1485  24.1485  26.8765  26.8765  31.4472  31.4472
    33.4264  33.4265  39.2011  39.2011  41.1854  41.1854  45.8603  45.8603
    46.1774  46.1774  46.6680  46.6680  51.8414  51.8414  51.9777  51.9777
    54.4876  54.4876  56.9598  56.9598  58.2755  58.2755  58.3999  58.3999
    62.8866  62.8867  64.0601  64.0601  67.4496  67.4496  68.3105  68.3105
    70.3653  70.3653  75.1655  75.1655  75.6629  75.6629  77.7887  77.7887
    78.4926  78.4926  79.4298  79.4298  79.4744  79.4744

     occupation numbers 
     1.0000   1.0000   1.0000   1.0000   1.0000   1.0000   1.0000   1.0000
     0.0000   0.0000   0.0000   0.0000   0.0000   0.0000   0.0000   0.0000
     0.0000   0.0000   0.0000   0.0000   0.0000   0.0000   0.0000   0.0000
     0.0000   0.0000   0.0000   0.0000   0.0000   0.0000   0.0000   0.0000
     0.0000   0.0000   0.0000   0.0000   0.0000   0.0000   0.0000   0.0000
     0.0000   0.0000   0.0000   0.0000   0.0000   0.0000   0.0000   0.0000
     0.0000   0.0000   0.0000   0.0000   0.0000   0.0000   0.0000   0.0000
     0.0000   0.0000   0.0000   0.0000   0.0000   0.0000   0.0000   0.0000
     0.0000   0.0000   0.0000   0.0000   0.0000   0.0000

     highest occupied, lowest unoccupied level (ev):     5.1743    8.9896

     Writing output data file run_output/hBN.save/

     init_run     :      0.06s CPU      0.08s WALL (       1 calls)
     electrons    :     66.06s CPU     69.40s WALL (       1 calls)

     Called by init_run:
     wfcinit      :      0.00s CPU      0.00s WALL (       1 calls)
     wfcinit:atom :      0.00s CPU      0.00s WALL (     305 calls)
     wfcinit:wfcr :      2.91s CPU      3.02s WALL (     305 calls)
     potinit      :      0.05s CPU      0.05s WALL (       1 calls)
     hinit0       :      0.01s CPU      0.01s WALL (       1 calls)

     Called by electrons:
     c_bands      :     66.03s CPU     69.31s WALL (       1 calls)
     v_of_rho     :      0.00s CPU      0.00s WALL (       1 calls)
     v_h          :      0.00s CPU      0.00s WALL (       1 calls)
     v_xc         :      0.00s CPU      0.00s WALL (       1 calls)

     Called by c_bands:
     init_us_2    :      0.00s CPU      0.00s WALL (     305 calls)
     cegterg      :     61.67s CPU     62.94s WALL (     307 calls)

     Called by sum_band:

     Called by *egterg:
     cdiaghg      :     43.49s CPU     43.47s WALL (    4493 calls)
     cegterg:over :      4.41s CPU      4.95s WALL (    4188 calls)
     cegterg:upda :      1.28s CPU      1.24s WALL (    4188 calls)
     cegterg:last :      2.34s CPU      2.34s WALL (    2165 calls)
     h_psi        :     11.02s CPU     11.84s WALL (    4800 calls)
     g_psi        :      0.03s CPU      0.03s WALL (    4188 calls)

     Called by h_psi:
     h_psi:calbec :      0.15s CPU      0.18s WALL (    4800 calls)
     vloc_psi     :     10.80s CPU     11.57s WALL (    4800 calls)
     add_vuspsi   :      0.05s CPU      0.06s WALL (    4800 calls)

     General routines
     calbec       :      0.15s CPU      0.18s WALL (    4800 calls)
     fft          :      0.00s CPU      0.01s WALL (       3 calls)
     fftw         :     10.44s CPU     11.17s WALL (  356290 calls)
     davcio       :      0.01s CPU      1.99s WALL (     610 calls)

     Parallel routines
     fft_scatt_xy :      0.56s CPU      0.50s WALL (  356293 calls)
     fft_scatt_yz :      6.44s CPU      6.81s WALL (  356293 calls)

     PWSCF        :   1m10.78s CPU   1m21.05s WALL


   This run was terminated on:  17:20:16  28Apr2021            

=------------------------------------------------------------------------------=
   JOB DONE.
=------------------------------------------------------------------------------=
